2
Lattice="20.0 0.0 0.0 0.0 20.0 0.0 0.0 0.0 20.0" Properties=species:S:1:pos:R:3:quaternions:R:4:c_diameter\[1\]:R:1:c_diameter\[2\]:R:1:c_diameter\[3\]:R:1:angles:R:1 separation_distance=1.0 energy=-0.6769451492577777 pbc="F F F"
X       10.00000000      10.00000000      10.00000000       1.00000000       0.00000000       0.00000000       0.00000000       1.00000000       2.00000000       1.00000000       0.00000000
X       11.00000000      10.00000000      10.00000000       0.76604444       0.00000000       0.00000000       0.64278761       1.00000000       2.00000000       1.00000000       1.39626340
2
Lattice="20.0 0.0 0.0 0.0 20.0 0.0 0.0 0.0 20.0" Properties=species:S:1:pos:R:3:quaternions:R:4:c_diameter\[1\]:R:1:c_diameter\[2\]:R:1:c_diameter\[3\]:R:1:angles:R:1 separation_distance=1.0 energy=-0.6769451492577778 pbc="F F F"
X       10.00000000      10.00000000      10.00000000       1.00000000       0.00000000       0.00000000       0.00000000       1.00000000       2.00000000       1.00000000       0.00000000
X       11.00000000      10.00000000      10.00000000       0.64278761       0.00000000       0.00000000       0.76604444       1.00000000       2.00000000       1.00000000       1.74532925
2
Lattice="20.0 0.0 0.0 0.0 20.0 0.0 0.0 0.0 20.0" Properties=species:S:1:pos:R:3:quaternions:R:4:c_diameter\[1\]:R:1:c_diameter\[2\]:R:1:c_diameter\[3\]:R:1:angles:R:1 separation_distance=1.0 energy=-0.8068593120604334 pbc="F F F"
X       10.00000000      10.00000000      10.00000000       0.98480775       0.00000000       0.00000000       0.17364818       1.00000000       2.00000000       1.00000000       0.34906585
X       11.00000000      10.00000000      10.00000000       0.76604444       0.00000000       0.00000000       0.64278761       1.00000000       2.00000000       1.00000000       1.39626340
2
Lattice="20.0 0.0 0.0 0.0 20.0 0.0 0.0 0.0 20.0" Properties=species:S:1:pos:R:3:quaternions:R:4:c_diameter\[1\]:R:1:c_diameter\[2\]:R:1:c_diameter\[3\]:R:1:angles:R:1 separation_distance=1.0 energy=-0.5958453723494872 pbc="F F F"
X       10.00000000      10.00000000      10.00000000       0.98480775       0.00000000       0.00000000       0.17364818       1.00000000       2.00000000       1.00000000       0.34906585
X       11.00000000      10.00000000      10.00000000       0.64278761       0.00000000       0.00000000       0.76604444       1.00000000       2.00000000       1.00000000       1.74532925
2
Lattice="20.0 0.0 0.0 0.0 20.0 0.0 0.0 0.0 20.0" Properties=species:S:1:pos:R:3:quaternions:R:4:c_diameter\[1\]:R:1:c_diameter\[2\]:R:1:c_diameter\[3\]:R:1:angles:R:1 separation_distance=1.0 energy=-0.3162321142025287 pbc="F F F"
X       10.00000000      10.00000000      10.00000000       0.98480775       0.00000000       0.00000000       0.17364818       1.00000000       2.00000000       1.00000000       0.34906585
X       11.00000000      10.00000000      10.00000000       0.50000000       0.00000000       0.00000000       0.86602540       1.00000000       2.00000000       1.00000000       2.09439510
2
Lattice="20.0 0.0 0.0 0.0 20.0 0.0 0.0 0.0 20.0" Properties=species:S:1:pos:R:3:quaternions:R:4:c_diameter\[1\]:R:1:c_diameter\[2\]:R:1:c_diameter\[3\]:R:1:angles:R:1 separation_distance=1.0 energy=-1.0614382292987143 pbc="F F F"
X       10.00000000      10.00000000      10.00000000       0.93969262       0.00000000       0.00000000       0.34202014       1.00000000       2.00000000       1.00000000       0.69813170
X       11.00000000      10.00000000      10.00000000       0.76604444       0.00000000       0.00000000       0.64278761       1.00000000       2.00000000       1.00000000       1.39626340
2
Lattice="20.0 0.0 0.0 0.0 20.0 0.0 0.0 0.0 20.0" Properties=species:S:1:pos:R:3:quaternions:R:4:c_diameter\[1\]:R:1:c_diameter\[2\]:R:1:c_diameter\[3\]:R:1:angles:R:1 separation_distance=1.0 energy=-0.3867742835998549 pbc="F F F"
X       10.00000000      10.00000000      10.00000000       0.93969262       0.00000000       0.00000000       0.34202014       1.00000000       2.00000000       1.00000000       0.69813170
X       11.00000000      10.00000000      10.00000000       0.64278761       0.00000000       0.00000000       0.76604444       1.00000000       2.00000000       1.00000000       1.74532925
2
Lattice="20.0 0.0 0.0 0.0 20.0 0.0 0.0 0.0 20.0" Properties=species:S:1:pos:R:3:quaternions:R:4:c_diameter\[1\]:R:1:c_diameter\[2\]:R:1:c_diameter\[3\]:R:1:angles:R:1 separation_distance=1.0 energy=-0.47873976870896656 pbc="F F F"
X       10.00000000      10.00000000      10.00000000       0.93969262       0.00000000       0.00000000       0.34202014       1.00000000       2.00000000       1.00000000       0.69813170
X       11.00000000      10.00000000      10.00000000       0.50000000       0.00000000       0.00000000       0.86602540       1.00000000       2.00000000       1.00000000       2.09439510
2
Lattice="20.0 0.0 0.0 0.0 20.0 0.0 0.0 0.0 20.0" Properties=species:S:1:pos:R:3:quaternions:R:4:c_diameter\[1\]:R:1:c_diameter\[2\]:R:1:c_diameter\[3\]:R:1:angles:R:1 separation_distance=1.0 energy=-0.7858179625681454 pbc="F F F"
X       10.00000000      10.00000000      10.00000000       0.86602540       0.00000000       0.00000000       0.50000000       1.00000000       2.00000000       1.00000000       1.04719755
X       11.00000000      10.00000000      10.00000000       0.86602540       0.00000000       0.00000000       0.50000000       1.00000000       2.00000000       1.00000000       1.04719755
2
Lattice="20.0 0.0 0.0 0.0 20.0 0.0 0.0 0.0 20.0" Properties=species:S:1:pos:R:3:quaternions:R:4:c_diameter\[1\]:R:1:c_diameter\[2\]:R:1:c_diameter\[3\]:R:1:angles:R:1 separation_distance=1.0 energy=-0.6272158122591968 pbc="F F F"
X       10.00000000      10.00000000      10.00000000       0.86602540       0.00000000       0.00000000       0.50000000       1.00000000       2.00000000       1.00000000       1.04719755
X       11.00000000      10.00000000      10.00000000       0.76604444       0.00000000       0.00000000       0.64278761       1.00000000       2.00000000       1.00000000       1.39626340
2
Lattice="20.0 0.0 0.0 0.0 20.0 0.0 0.0 0.0 20.0" Properties=species:S:1:pos:R:3:quaternions:R:4:c_diameter\[1\]:R:1:c_diameter\[2\]:R:1:c_diameter\[3\]:R:1:angles:R:1 separation_distance=1.0 energy=-0.2019036230820299 pbc="F F F"
X       10.00000000      10.00000000      10.00000000       0.86602540       0.00000000       0.00000000       0.50000000       1.00000000       2.00000000       1.00000000       1.04719755
X       11.00000000      10.00000000      10.00000000       0.64278761       0.00000000       0.00000000       0.76604444       1.00000000       2.00000000       1.00000000       1.74532925
2
Lattice="20.0 0.0 0.0 0.0 20.0 0.0 0.0 0.0 20.0" Properties=species:S:1:pos:R:3:quaternions:R:4:c_diameter\[1\]:R:1:c_diameter\[2\]:R:1:c_diameter\[3\]:R:1:angles:R:1 separation_distance=1.0 energy=-0.22352631257196348 pbc="F F F"
X       10.00000000      10.00000000      10.00000000       0.86602540       0.00000000       0.00000000       0.50000000       1.00000000       2.00000000       1.00000000       1.04719755
X       11.00000000      10.00000000      10.00000000       0.50000000       0.00000000       0.00000000       0.86602540       1.00000000       2.00000000       1.00000000       2.09439510
2
Lattice="20.0 0.0 0.0 0.0 20.0 0.0 0.0 0.0 20.0" Properties=species:S:1:pos:R:3:quaternions:R:4:c_diameter\[1\]:R:1:c_diameter\[2\]:R:1:c_diameter\[3\]:R:1:angles:R:1 separation_distance=1.0 energy=-0.4787397687089658 pbc="F F F"
X       10.00000000      10.00000000      10.00000000       0.86602540       0.00000000       0.00000000       0.50000000       1.00000000       2.00000000       1.00000000       1.04719755
X       11.00000000      10.00000000      10.00000000       0.34202014       0.00000000       0.00000000       0.93969262       1.00000000       2.00000000       1.00000000       2.44346095
2
Lattice="20.0 0.0 0.0 0.0 20.0 0.0 0.0 0.0 20.0" Properties=species:S:1:pos:R:3:quaternions:R:4:c_diameter\[1\]:R:1:c_diameter\[2\]:R:1:c_diameter\[3\]:R:1:angles:R:1 separation_distance=1.0 energy=-0.3162321142025288 pbc="F F F"
X       10.00000000      10.00000000      10.00000000       0.86602540       0.00000000       0.00000000       0.50000000       1.00000000       2.00000000       1.00000000       1.04719755
X       11.00000000      10.00000000      10.00000000       0.17364818       0.00000000       0.00000000       0.98480775       1.00000000       2.00000000       1.00000000       2.79252680
2
Lattice="20.0 0.0 0.0 0.0 20.0 0.0 0.0 0.0 20.0" Properties=species:S:1:pos:R:3:quaternions:R:4:c_diameter\[1\]:R:1:c_diameter\[2\]:R:1:c_diameter\[3\]:R:1:angles:R:1 separation_distance=1.0 energy=-0.6769451492577777 pbc="F F F"
X       10.00000000      10.00000000      10.00000000       0.76604444       0.00000000       0.00000000       0.64278761       1.00000000       2.00000000       1.00000000       1.39626340
X       11.00000000      10.00000000      10.00000000       1.00000000       0.00000000       0.00000000       0.00000000       1.00000000       2.00000000       1.00000000       0.00000000
2
Lattice="20.0 0.0 0.0 0.0 20.0 0.0 0.0 0.0 20.0" Properties=species:S:1:pos:R:3:quaternions:R:4:c_diameter\[1\]:R:1:c_diameter\[2\]:R:1:c_diameter\[3\]:R:1:angles:R:1 separation_distance=1.0 energy=-0.8068593120604334 pbc="F F F"
X       10.00000000      10.00000000      10.00000000       0.76604444       0.00000000       0.00000000       0.64278761       1.00000000       2.00000000       1.00000000       1.39626340
X       11.00000000      10.00000000      10.00000000       0.98480775       0.00000000       0.00000000       0.17364818       1.00000000       2.00000000       1.00000000       0.34906585
2
Lattice="20.0 0.0 0.0 0.0 20.0 0.0 0.0 0.0 20.0" Properties=species:S:1:pos:R:3:quaternions:R:4:c_diameter\[1\]:R:1:c_diameter\[2\]:R:1:c_diameter\[3\]:R:1:angles:R:1 separation_distance=1.0 energy=-1.0614382292987143 pbc="F F F"
X       10.00000000      10.00000000      10.00000000       0.76604444       0.00000000       0.00000000       0.64278761       1.00000000       2.00000000       1.00000000       1.39626340
X       11.00000000      10.00000000      10.00000000       0.93969262       0.00000000       0.00000000       0.34202014       1.00000000       2.00000000       1.00000000       0.69813170
2
Lattice="20.0 0.0 0.0 0.0 20.0 0.0 0.0 0.0 20.0" Properties=species:S:1:pos:R:3:quaternions:R:4:c_diameter\[1\]:R:1:c_diameter\[2\]:R:1:c_diameter\[3\]:R:1:angles:R:1 separation_distance=1.0 energy=-0.6272158122591968 pbc="F F F"
X       10.00000000      10.00000000      10.00000000       0.76604444       0.00000000       0.00000000       0.64278761       1.00000000       2.00000000       1.00000000       1.39626340
X       11.00000000      10.00000000      10.00000000       0.86602540       0.00000000       0.00000000       0.50000000       1.00000000       2.00000000       1.00000000       1.04719755
2
Lattice="20.0 0.0 0.0 0.0 20.0 0.0 0.0 0.0 20.0" Properties=species:S:1:pos:R:3:quaternions:R:4:c_diameter\[1\]:R:1:c_diameter\[2\]:R:1:c_diameter\[3\]:R:1:angles:R:1 separation_distance=1.0 energy=-0.214595075618511 pbc="F F F"
X       10.00000000      10.00000000      10.00000000       0.76604444       0.00000000       0.00000000       0.64278761       1.00000000       2.00000000       1.00000000       1.39626340
X       11.00000000      10.00000000      10.00000000       0.76604444       0.00000000       0.00000000       0.64278761       1.00000000       2.00000000       1.00000000       1.39626340
2
Lattice="20.0 0.0 0.0 0.0 20.0 0.0 0.0 0.0 20.0" Properties=species:S:1:pos:R:3:quaternions:R:4:c_diameter\[1\]:R:1:c_diameter\[2\]:R:1:c_diameter\[3\]:R:1:angles:R:1 separation_distance=1.0 energy=-0.13277879408549695 pbc="F F F"
X       10.00000000      10.00000000      10.00000000       0.76604444       0.00000000       0.00000000       0.64278761       1.00000000       2.00000000       1.00000000       1.39626340
X       11.00000000      10.00000000      10.00000000       0.64278761       0.00000000       0.00000000       0.76604444       1.00000000       2.00000000       1.00000000       1.74532925
2
Lattice="20.0 0.0 0.0 0.0 20.0 0.0 0.0 0.0 20.0" Properties=species:S:1:pos:R:3:quaternions:R:4:c_diameter\[1\]:R:1:c_diameter\[2\]:R:1:c_diameter\[3\]:R:1:angles:R:1 separation_distance=1.0 energy=-0.2019036230820301 pbc="F F F"
X       10.00000000      10.00000000      10.00000000       0.76604444       0.00000000       0.00000000       0.64278761       1.00000000       2.00000000       1.00000000       1.39626340
X       11.00000000      10.00000000      10.00000000       0.50000000       0.00000000       0.00000000       0.86602540       1.00000000       2.00000000       1.00000000       2.09439510
2
Lattice="20.0 0.0 0.0 0.0 20.0 0.0 0.0 0.0 20.0" Properties=species:S:1:pos:R:3:quaternions:R:4:c_diameter\[1\]:R:1:c_diameter\[2\]:R:1:c_diameter\[3\]:R:1:angles:R:1 separation_distance=1.0 energy=-0.3867742835998546 pbc="F F F"
X       10.00000000      10.00000000      10.00000000       0.76604444       0.00000000       0.00000000       0.64278761       1.00000000       2.00000000       1.00000000       1.39626340
X       11.00000000      10.00000000      10.00000000       0.34202014       0.00000000       0.00000000       0.93969262       1.00000000       2.00000000       1.00000000       2.44346095
2
Lattice="20.0 0.0 0.0 0.0 20.0 0.0 0.0 0.0 20.0" Properties=species:S:1:pos:R:3:quaternions:R:4:c_diameter\[1\]:R:1:c_diameter\[2\]:R:1:c_diameter\[3\]:R:1:angles:R:1 separation_distance=1.0 energy=-0.5958453723494865 pbc="F F F"
X       10.00000000      10.00000000      10.00000000       0.76604444       0.00000000       0.00000000       0.64278761       1.00000000       2.00000000       1.00000000       1.39626340
X       11.00000000      10.00000000      10.00000000       0.17364818       0.00000000       0.00000000       0.98480775       1.00000000       2.00000000       1.00000000       2.79252680
2
Lattice="20.0 0.0 0.0 0.0 20.0 0.0 0.0 0.0 20.0" Properties=species:S:1:pos:R:3:quaternions:R:4:c_diameter\[1\]:R:1:c_diameter\[2\]:R:1:c_diameter\[3\]:R:1:angles:R:1 separation_distance=1.0 energy=-0.6769451492577778 pbc="F F F"
X       10.00000000      10.00000000      10.00000000       0.76604444       0.00000000       0.00000000       0.64278761       1.00000000       2.00000000       1.00000000       1.39626340
X       11.00000000      10.00000000      10.00000000       0.00000000       0.00000000       0.00000000       1.00000000       1.00000000       2.00000000       1.00000000       3.14159265
2
Lattice="20.0 0.0 0.0 0.0 20.0 0.0 0.0 0.0 20.0" Properties=species:S:1:pos:R:3:quaternions:R:4:c_diameter\[1\]:R:1:c_diameter\[2\]:R:1:c_diameter\[3\]:R:1:angles:R:1 separation_distance=1.0 energy=-0.6769451492577778 pbc="F F F"
X       10.00000000      10.00000000      10.00000000       0.64278761       0.00000000       0.00000000       0.76604444       1.00000000       2.00000000       1.00000000       1.74532925
X       11.00000000      10.00000000      10.00000000       1.00000000       0.00000000       0.00000000       0.00000000       1.00000000       2.00000000       1.00000000       0.00000000
2
Lattice="20.0 0.0 0.0 0.0 20.0 0.0 0.0 0.0 20.0" Properties=species:S:1:pos:R:3:quaternions:R:4:c_diameter\[1\]:R:1:c_diameter\[2\]:R:1:c_diameter\[3\]:R:1:angles:R:1 separation_distance=1.0 energy=-0.5958453723494872 pbc="F F F"
X       10.00000000      10.00000000      10.00000000       0.64278761       0.00000000       0.00000000       0.76604444       1.00000000       2.00000000       1.00000000       1.74532925
X       11.00000000      10.00000000      10.00000000       0.98480775       0.00000000       0.00000000       0.17364818       1.00000000       2.00000000       1.00000000       0.34906585
2
Lattice="20.0 0.0 0.0 0.0 20.0 0.0 0.0 0.0 20.0" Properties=species:S:1:pos:R:3:quaternions:R:4:c_diameter\[1\]:R:1:c_diameter\[2\]:R:1:c_diameter\[3\]:R:1:angles:R:1 separation_distance=1.0 energy=-0.3867742835998549 pbc="F F F"
X       10.00000000      10.00000000      10.00000000       0.64278761       0.00000000       0.00000000       0.76604444       1.00000000       2.00000000       1.00000000       1.74532925
X       11.00000000      10.00000000      10.00000000       0.93969262       0.00000000       0.00000000       0.34202014       1.00000000       2.00000000       1.00000000       0.69813170
2
Lattice="20.0 0.0 0.0 0.0 20.0 0.0 0.0 0.0 20.0" Properties=species:S:1:pos:R:3:quaternions:R:4:c_diameter\[1\]:R:1:c_diameter\[2\]:R:1:c_diameter\[3\]:R:1:angles:R:1 separation_distance=1.0 energy=-0.2019036230820299 pbc="F F F"
X       10.00000000      10.00000000      10.00000000       0.64278761       0.00000000       0.00000000       0.76604444       1.00000000       2.00000000       1.00000000       1.74532925
X       11.00000000      10.00000000      10.00000000       0.86602540       0.00000000       0.00000000       0.50000000       1.00000000       2.00000000       1.00000000       1.04719755
2
Lattice="20.0 0.0 0.0 0.0 20.0 0.0 0.0 0.0 20.0" Properties=species:S:1:pos:R:3:quaternions:R:4:c_diameter\[1\]:R:1:c_diameter\[2\]:R:1:c_diameter\[3\]:R:1:angles:R:1 separation_distance=1.0 energy=-0.13277879408549695 pbc="F F F"
X       10.00000000      10.00000000      10.00000000       0.64278761       0.00000000       0.00000000       0.76604444       1.00000000       2.00000000       1.00000000       1.74532925
X       11.00000000      10.00000000      10.00000000       0.76604444       0.00000000       0.00000000       0.64278761       1.00000000       2.00000000       1.00000000       1.39626340
2
Lattice="20.0 0.0 0.0 0.0 20.0 0.0 0.0 0.0 20.0" Properties=species:S:1:pos:R:3:quaternions:R:4:c_diameter\[1\]:R:1:c_diameter\[2\]:R:1:c_diameter\[3\]:R:1:angles:R:1 separation_distance=1.0 energy=-0.21459507561851093 pbc="F F F"
X       10.00000000      10.00000000      10.00000000       0.64278761       0.00000000       0.00000000       0.76604444       1.00000000       2.00000000       1.00000000       1.74532925
X       11.00000000      10.00000000      10.00000000       0.64278761       0.00000000       0.00000000       0.76604444       1.00000000       2.00000000       1.00000000       1.74532925
2
Lattice="20.0 0.0 0.0 0.0 20.0 0.0 0.0 0.0 20.0" Properties=species:S:1:pos:R:3:quaternions:R:4:c_diameter\[1\]:R:1:c_diameter\[2\]:R:1:c_diameter\[3\]:R:1:angles:R:1 separation_distance=1.0 energy=-0.6272158122591932 pbc="F F F"
X       10.00000000      10.00000000      10.00000000       0.64278761       0.00000000       0.00000000       0.76604444       1.00000000       2.00000000       1.00000000       1.74532925
X       11.00000000      10.00000000      10.00000000       0.50000000       0.00000000       0.00000000       0.86602540       1.00000000       2.00000000       1.00000000       2.09439510
2
Lattice="20.0 0.0 0.0 0.0 20.0 0.0 0.0 0.0 20.0" Properties=species:S:1:pos:R:3:quaternions:R:4:c_diameter\[1\]:R:1:c_diameter\[2\]:R:1:c_diameter\[3\]:R:1:angles:R:1 separation_distance=1.0 energy=-1.0614382292987177 pbc="F F F"
X       10.00000000      10.00000000      10.00000000       0.64278761       0.00000000       0.00000000       0.76604444       1.00000000       2.00000000       1.00000000       1.74532925
X       11.00000000      10.00000000      10.00000000       0.34202014       0.00000000       0.00000000       0.93969262       1.00000000       2.00000000       1.00000000       2.44346095
2
Lattice="20.0 0.0 0.0 0.0 20.0 0.0 0.0 0.0 20.0" Properties=species:S:1:pos:R:3:quaternions:R:4:c_diameter\[1\]:R:1:c_diameter\[2\]:R:1:c_diameter\[3\]:R:1:angles:R:1 separation_distance=1.0 energy=-0.8068593120604343 pbc="F F F"
X       10.00000000      10.00000000      10.00000000       0.64278761       0.00000000       0.00000000       0.76604444       1.00000000       2.00000000       1.00000000       1.74532925
X       11.00000000      10.00000000      10.00000000       0.17364818       0.00000000       0.00000000       0.98480775       1.00000000       2.00000000       1.00000000       2.79252680
2
Lattice="20.0 0.0 0.0 0.0 20.0 0.0 0.0 0.0 20.0" Properties=species:S:1:pos:R:3:quaternions:R:4:c_diameter\[1\]:R:1:c_diameter\[2\]:R:1:c_diameter\[3\]:R:1:angles:R:1 separation_distance=1.0 energy=-0.6769451492577777 pbc="F F F"
X       10.00000000      10.00000000      10.00000000       0.64278761       0.00000000       0.00000000       0.76604444       1.00000000       2.00000000       1.00000000       1.74532925
X       11.00000000      10.00000000      10.00000000       0.00000000       0.00000000       0.00000000       1.00000000       1.00000000       2.00000000       1.00000000       3.14159265
2
Lattice="20.0 0.0 0.0 0.0 20.0 0.0 0.0 0.0 20.0" Properties=species:S:1:pos:R:3:quaternions:R:4:c_diameter\[1\]:R:1:c_diameter\[2\]:R:1:c_diameter\[3\]:R:1:angles:R:1 separation_distance=1.0 energy=-0.3162321142025287 pbc="F F F"
X       10.00000000      10.00000000      10.00000000       0.50000000       0.00000000       0.00000000       0.86602540       1.00000000       2.00000000       1.00000000       2.09439510
X       11.00000000      10.00000000      10.00000000       0.98480775       0.00000000       0.00000000       0.17364818       1.00000000       2.00000000       1.00000000       0.34906585
2
Lattice="20.0 0.0 0.0 0.0 20.0 0.0 0.0 0.0 20.0" Properties=species:S:1:pos:R:3:quaternions:R:4:c_diameter\[1\]:R:1:c_diameter\[2\]:R:1:c_diameter\[3\]:R:1:angles:R:1 separation_distance=1.0 energy=-0.47873976870896656 pbc="F F F"
X       10.00000000      10.00000000      10.00000000       0.50000000       0.00000000       0.00000000       0.86602540       1.00000000       2.00000000       1.00000000       2.09439510
X       11.00000000      10.00000000      10.00000000       0.93969262       0.00000000       0.00000000       0.34202014       1.00000000       2.00000000       1.00000000       0.69813170
2
Lattice="20.0 0.0 0.0 0.0 20.0 0.0 0.0 0.0 20.0" Properties=species:S:1:pos:R:3:quaternions:R:4:c_diameter\[1\]:R:1:c_diameter\[2\]:R:1:c_diameter\[3\]:R:1:angles:R:1 separation_distance=1.0 energy=-0.22352631257196348 pbc="F F F"
X       10.00000000      10.00000000      10.00000000       0.50000000       0.00000000       0.00000000       0.86602540       1.00000000       2.00000000       1.00000000       2.09439510
X       11.00000000      10.00000000      10.00000000       0.86602540       0.00000000       0.00000000       0.50000000       1.00000000       2.00000000       1.00000000       1.04719755
2
Lattice="20.0 0.0 0.0 0.0 20.0 0.0 0.0 0.0 20.0" Properties=species:S:1:pos:R:3:quaternions:R:4:c_diameter\[1\]:R:1:c_diameter\[2\]:R:1:c_diameter\[3\]:R:1:angles:R:1 separation_distance=1.0 energy=-0.2019036230820301 pbc="F F F"
X       10.00000000      10.00000000      10.00000000       0.50000000       0.00000000       0.00000000       0.86602540       1.00000000       2.00000000       1.00000000       2.09439510
X       11.00000000      10.00000000      10.00000000       0.76604444       0.00000000       0.00000000       0.64278761       1.00000000       2.00000000       1.00000000       1.39626340
2
Lattice="20.0 0.0 0.0 0.0 20.0 0.0 0.0 0.0 20.0" Properties=species:S:1:pos:R:3:quaternions:R:4:c_diameter\[1\]:R:1:c_diameter\[2\]:R:1:c_diameter\[3\]:R:1:angles:R:1 separation_distance=1.0 energy=-0.6272158122591932 pbc="F F F"
X       10.00000000      10.00000000      10.00000000       0.50000000       0.00000000       0.00000000       0.86602540       1.00000000       2.00000000       1.00000000       2.09439510
X       11.00000000      10.00000000      10.00000000       0.64278761       0.00000000       0.00000000       0.76604444       1.00000000       2.00000000       1.00000000       1.74532925
2
Lattice="20.0 0.0 0.0 0.0 20.0 0.0 0.0 0.0 20.0" Properties=species:S:1:pos:R:3:quaternions:R:4:c_diameter\[1\]:R:1:c_diameter\[2\]:R:1:c_diameter\[3\]:R:1:angles:R:1 separation_distance=1.0 energy=-0.7858179625681783 pbc="F F F"
X       10.00000000      10.00000000      10.00000000       0.50000000       0.00000000       0.00000000       0.86602540       1.00000000       2.00000000       1.00000000       2.09439510
X       11.00000000      10.00000000      10.00000000       0.50000000       0.00000000       0.00000000       0.86602540       1.00000000       2.00000000       1.00000000       2.09439510
2
Lattice="20.0 0.0 0.0 0.0 20.0 0.0 0.0 0.0 20.0" Properties=species:S:1:pos:R:3:quaternions:R:4:c_diameter\[1\]:R:1:c_diameter\[2\]:R:1:c_diameter\[3\]:R:1:angles:R:1 separation_distance=1.0 energy=-0.4787397687089658 pbc="F F F"
X       10.00000000      10.00000000      10.00000000       0.34202014       0.00000000       0.00000000       0.93969262       1.00000000       2.00000000       1.00000000       2.44346095
X       11.00000000      10.00000000      10.00000000       0.86602540       0.00000000       0.00000000       0.50000000       1.00000000       2.00000000       1.00000000       1.04719755
2
Lattice="20.0 0.0 0.0 0.0 20.0 0.0 0.0 0.0 20.0" Properties=species:S:1:pos:R:3:quaternions:R:4:c_diameter\[1\]:R:1:c_diameter\[2\]:R:1:c_diameter\[3\]:R:1:angles:R:1 separation_distance=1.0 energy=-0.3867742835998546 pbc="F F F"
X       10.00000000      10.00000000      10.00000000       0.34202014       0.00000000       0.00000000       0.93969262       1.00000000       2.00000000       1.00000000       2.44346095
X       11.00000000      10.00000000      10.00000000       0.76604444       0.00000000       0.00000000       0.64278761       1.00000000       2.00000000       1.00000000       1.39626340
2
Lattice="20.0 0.0 0.0 0.0 20.0 0.0 0.0 0.0 20.0" Properties=species:S:1:pos:R:3:quaternions:R:4:c_diameter\[1\]:R:1:c_diameter\[2\]:R:1:c_diameter\[3\]:R:1:angles:R:1 separation_distance=1.0 energy=-1.0614382292987177 pbc="F F F"
X       10.00000000      10.00000000      10.00000000       0.34202014       0.00000000       0.00000000       0.93969262       1.00000000       2.00000000       1.00000000       2.44346095
X       11.00000000      10.00000000      10.00000000       0.64278761       0.00000000       0.00000000       0.76604444       1.00000000       2.00000000       1.00000000       1.74532925
2
Lattice="20.0 0.0 0.0 0.0 20.0 0.0 0.0 0.0 20.0" Properties=species:S:1:pos:R:3:quaternions:R:4:c_diameter\[1\]:R:1:c_diameter\[2\]:R:1:c_diameter\[3\]:R:1:angles:R:1 separation_distance=1.0 energy=-0.3162321142025288 pbc="F F F"
X       10.00000000      10.00000000      10.00000000       0.17364818       0.00000000       0.00000000       0.98480775       1.00000000       2.00000000       1.00000000       2.79252680
X       11.00000000      10.00000000      10.00000000       0.86602540       0.00000000       0.00000000       0.50000000       1.00000000       2.00000000       1.00000000       1.04719755
2
Lattice="20.0 0.0 0.0 0.0 20.0 0.0 0.0 0.0 20.0" Properties=species:S:1:pos:R:3:quaternions:R:4:c_diameter\[1\]:R:1:c_diameter\[2\]:R:1:c_diameter\[3\]:R:1:angles:R:1 separation_distance=1.0 energy=-0.5958453723494865 pbc="F F F"
X       10.00000000      10.00000000      10.00000000       0.17364818       0.00000000       0.00000000       0.98480775       1.00000000       2.00000000       1.00000000       2.79252680
X       11.00000000      10.00000000      10.00000000       0.76604444       0.00000000       0.00000000       0.64278761       1.00000000       2.00000000       1.00000000       1.39626340
2
Lattice="20.0 0.0 0.0 0.0 20.0 0.0 0.0 0.0 20.0" Properties=species:S:1:pos:R:3:quaternions:R:4:c_diameter\[1\]:R:1:c_diameter\[2\]:R:1:c_diameter\[3\]:R:1:angles:R:1 separation_distance=1.0 energy=-0.8068593120604343 pbc="F F F"
X       10.00000000      10.00000000      10.00000000       0.17364818       0.00000000       0.00000000       0.98480775       1.00000000       2.00000000       1.00000000       2.79252680
X       11.00000000      10.00000000      10.00000000       0.64278761       0.00000000       0.00000000       0.76604444       1.00000000       2.00000000       1.00000000       1.74532925
2
Lattice="20.0 0.0 0.0 0.0 20.0 0.0 0.0 0.0 20.0" Properties=species:S:1:pos:R:3:quaternions:R:4:c_diameter\[1\]:R:1:c_diameter\[2\]:R:1:c_diameter\[3\]:R:1:angles:R:1 separation_distance=1.0 energy=-0.6769451492577778 pbc="F F F"
X       10.00000000      10.00000000      10.00000000       0.00000000       0.00000000       0.00000000       1.00000000       1.00000000       2.00000000       1.00000000       3.14159265
X       11.00000000      10.00000000      10.00000000       0.76604444       0.00000000       0.00000000       0.64278761       1.00000000       2.00000000       1.00000000       1.39626340
2
Lattice="20.0 0.0 0.0 0.0 20.0 0.0 0.0 0.0 20.0" Properties=species:S:1:pos:R:3:quaternions:R:4:c_diameter\[1\]:R:1:c_diameter\[2\]:R:1:c_diameter\[3\]:R:1:angles:R:1 separation_distance=1.0 energy=-0.6769451492577777 pbc="F F F"
X       10.00000000      10.00000000      10.00000000       0.00000000       0.00000000       0.00000000       1.00000000       1.00000000       2.00000000       1.00000000       3.14159265
X       11.00000000      10.00000000      10.00000000       0.64278761       0.00000000       0.00000000       0.76604444       1.00000000       2.00000000       1.00000000       1.74532925
2
Lattice="20.0 0.0 0.0 0.0 20.0 0.0 0.0 0.0 20.0" Properties=species:S:1:pos:R:3:quaternions:R:4:c_diameter\[1\]:R:1:c_diameter\[2\]:R:1:c_diameter\[3\]:R:1:angles:R:1 separation_distance=1.1555555555555554 energy=-1.638306346774831 pbc="F F F"
X       10.00000000      10.00000000      10.00000000       0.86602540       0.00000000       0.00000000       0.50000000       1.00000000       2.00000000       1.00000000       1.04719755