2
Lattice="20.0 0.0 0.0 0.0 20.0 0.0 0.0 0.0 20.0" Properties=species:S:1:pos:R:3:quaternions:R:4:c_diameter[1]:R:1:c_diameter[2]:R:1:c_diameter[3]:R:1:angles:R:1 separation_distance=1.4666666666666668 energy=-1.4457851833387703 pbc="F F F"
X       10.00000000      10.00000000      10.00000000       1.00000000       0.00000000       0.00000000       0.00000000       1.00000000       1.50000000       1.00000000       0.00000000
X       11.46666667      10.00000000      10.00000000       1.00000000       0.00000000       0.00000000       0.00000000       1.00000000       1.50000000       1.00000000       0.00000000
2
Lattice="20.0 0.0 0.0 0.0 20.0 0.0 0.0 0.0 20.0" Properties=species:S:1:pos:R:3:quaternions:R:4:c_diameter[1]:R:1:c_diameter[2]:R:1:c_diameter[3]:R:1:angles:R:1 separation_distance=1.4666666666666668 energy=-1.325862314119936 pbc="F F F"
X       10.00000000      10.00000000      10.00000000       1.00000000       0.00000000       0.00000000       0.00000000       1.00000000       1.50000000       1.00000000       0.00000000
X       11.46666667      10.00000000      10.00000000       0.98480775       0.00000000       0.00000000       0.17364818       1.00000000       1.50000000       1.00000000       0.34906585
2
Lattice="20.0 0.0 0.0 0.0 20.0 0.0 0.0 0.0 20.0" Properties=species:S:1:pos:R:3:quaternions:R:4:c_diameter[1]:R:1:c_diameter[2]:R:1:c_diameter[3]:R:1:angles:R:1 separation_distance=1.4666666666666668 energy=-1.325862314119937 pbc="F F F"
X       10.00000000      10.00000000      10.00000000       1.00000000       0.00000000       0.00000000       0.00000000       1.00000000       1.50000000       1.00000000       0.00000000
X       11.46666667      10.00000000      10.00000000       0.17364818       0.00000000       0.00000000       0.98480775       1.00000000       1.50000000       1.00000000       2.79252680
2
Lattice="20.0 0.0 0.0 0.0 20.0 0.0 0.0 0.0 20.0" Properties=species:S:1:pos:R:3:quaternions:R:4:c_diameter[1]:R:1:c_diameter[2]:R:1:c_diameter[3]:R:1:angles:R:1 separation_distance=1.4666666666666668 energy=-1.4457851833387703 pbc="F F F"
X       10.00000000      10.00000000      10.00000000       1.00000000       0.00000000       0.00000000       0.00000000       1.00000000       1.50000000       1.00000000       0.00000000
X       11.46666667      10.00000000      10.00000000       0.00000000       0.00000000       0.00000000       1.00000000       1.00000000       1.50000000       1.00000000       3.14159265
2
Lattice="20.0 0.0 0.0 0.0 20.0 0.0 0.0 0.0 20.0" Properties=species:S:1:pos:R:3:quaternions:R:4:c_diameter[1]:R:1:c_diameter[2]:R:1:c_diameter[3]:R:1:angles:R:1 separation_distance=1.4666666666666668 energy=-1.325862314119936 pbc="F F F"
X       10.00000000      10.00000000      10.00000000       0.98480775       0.00000000       0.00000000       0.17364818       1.00000000       1.50000000       1.00000000       0.34906585
X       11.46666667      10.00000000      10.00000000       1.00000000       0.00000000       0.00000000       0.00000000       1.00000000       1.50000000       1.00000000       0.00000000
2
Lattice="20.0 0.0 0.0 0.0 20.0 0.0 0.0 0.0 20.0" Properties=species:S:1:pos:R:3:quaternions:R:4:c_diameter[1]:R:1:c_diameter[2]:R:1:c_diameter[3]:R:1:angles:R:1 separation_distance=1.4666666666666668 energy=-1.3547910267220085 pbc="F F F"
X       10.00000000      10.00000000      10.00000000       0.98480775       0.00000000       0.00000000       0.17364818       1.00000000       1.50000000       1.00000000       0.34906585
X       11.46666667      10.00000000      10.00000000       0.98480775       0.00000000       0.00000000       0.17364818       1.00000000       1.50000000       1.00000000       0.34906585
2
Lattice="20.0 0.0 0.0 0.0 20.0 0.0 0.0 0.0 20.0" Properties=species:S:1:pos:R:3:quaternions:R:4:c_diameter[1]:R:1:c_diameter[2]:R:1:c_diameter[3]:R:1:angles:R:1 separation_distance=1.4666666666666668 energy=-0.22927989123888498 pbc="F F F"
X       10.00000000      10.00000000      10.00000000       0.98480775       0.00000000       0.00000000       0.17364818       1.00000000       1.50000000       1.00000000       0.34906585
X       11.46666667      10.00000000      10.00000000       0.17364818       0.00000000       0.00000000       0.98480775       1.00000000       1.50000000       1.00000000       2.79252680
2
Lattice="20.0 0.0 0.0 0.0 20.0 0.0 0.0 0.0 20.0" Properties=species:S:1:pos:R:3:quaternions:R:4:c_diameter[1]:R:1:c_diameter[2]:R:1:c_diameter[3]:R:1:angles:R:1 separation_distance=1.4666666666666668 energy=-1.3258623141199353 pbc="F F F"
X       10.00000000      10.00000000      10.00000000       0.98480775       0.00000000       0.00000000       0.17364818       1.00000000       1.50000000       1.00000000       0.34906585
X       11.46666667      10.00000000      10.00000000       0.00000000       0.00000000       0.00000000       1.00000000       1.00000000       1.50000000       1.00000000       3.14159265
2
Lattice="20.0 0.0 0.0 0.0 20.0 0.0 0.0 0.0 20.0" Properties=species:S:1:pos:R:3:quaternions:R:4:c_diameter[1]:R:1:c_diameter[2]:R:1:c_diameter[3]:R:1:angles:R:1 separation_distance=1.4666666666666668 energy=-1.325862314119937 pbc="F F F"
X       10.00000000      10.00000000      10.00000000       0.17364818       0.00000000       0.00000000       0.98480775       1.00000000       1.50000000       1.00000000       2.79252680
X       11.46666667      10.00000000      10.00000000       1.00000000       0.00000000       0.00000000       0.00000000       1.00000000       1.50000000       1.00000000       0.00000000
2
Lattice="20.0 0.0 0.0 0.0 20.0 0.0 0.0 0.0 20.0" Properties=species:S:1:pos:R:3:quaternions:R:4:c_diameter[1]:R:1:c_diameter[2]:R:1:c_diameter[3]:R:1:angles:R:1 separation_distance=1.4666666666666668 energy=-0.22927989123888498 pbc="F F F"
X       10.00000000      10.00000000      10.00000000       0.17364818       0.00000000       0.00000000       0.98480775       1.00000000       1.50000000       1.00000000       2.79252680
X       11.46666667      10.00000000      10.00000000       0.98480775       0.00000000       0.00000000       0.17364818       1.00000000       1.50000000       1.00000000       0.34906585
2
Lattice="20.0 0.0 0.0 0.0 20.0 0.0 0.0 0.0 20.0" Properties=species:S:1:pos:R:3:quaternions:R:4:c_diameter[1]:R:1:c_diameter[2]:R:1:c_diameter[3]:R:1:angles:R:1 separation_distance=1.4666666666666668 energy=-1.3547910267220082 pbc="F F F"
X       10.00000000      10.00000000      10.00000000       0.17364818       0.00000000       0.00000000       0.98480775       1.00000000       1.50000000       1.00000000       2.79252680
X       11.46666667      10.00000000      10.00000000       0.17364818       0.00000000       0.00000000       0.98480775       1.00000000       1.50000000       1.00000000       2.79252680
2
Lattice="20.0 0.0 0.0 0.0 20.0 0.0 0.0 0.0 20.0" Properties=species:S:1:pos:R:3:quaternions:R:4:c_diameter[1]:R:1:c_diameter[2]:R:1:c_diameter[3]:R:1:angles:R:1 separation_distance=1.4666666666666668 energy=-1.3258623141199393 pbc="F F F"
X       10.00000000      10.00000000      10.00000000       0.17364818       0.00000000       0.00000000       0.98480775       1.00000000       1.50000000       1.00000000       2.79252680
X       11.46666667      10.00000000      10.00000000       0.00000000       0.00000000       0.00000000       1.00000000       1.00000000       1.50000000       1.00000000       3.14159265
2
Lattice="20.0 0.0 0.0 0.0 20.0 0.0 0.0 0.0 20.0" Properties=species:S:1:pos:R:3:quaternions:R:4:c_diameter[1]:R:1:c_diameter[2]:R:1:c_diameter[3]:R:1:angles:R:1 separation_distance=1.4666666666666668 energy=-1.4457851833387703 pbc="F F F"
X       10.00000000      10.00000000      10.00000000       0.00000000       0.00000000       0.00000000       1.00000000       1.00000000       1.50000000       1.00000000       3.14159265
X       11.46666667      10.00000000      10.00000000       1.00000000       0.00000000       0.00000000       0.00000000       1.00000000       1.50000000       1.00000000       0.00000000
2
Lattice="20.0 0.0 0.0 0.0 20.0 0.0 0.0 0.0 20.0" Properties=species:S:1:pos:R:3:quaternions:R:4:c_diameter[1]:R:1:c_diameter[2]:R:1:c_diameter[3]:R:1:angles:R:1 separation_distance=1.4666666666666668 energy=-1.3258623141199353 pbc="F F F"
X       10.00000000      10.00000000      10.00000000       0.00000000       0.00000000       0.00000000       1.00000000       1.00000000       1.50000000       1.00000000       3.14159265
X       11.46666667      10.00000000      10.00000000       0.98480775       0.00000000       0.00000000       0.17364818       1.00000000       1.50000000       1.00000000       0.34906585
2
Lattice="20.0 0.0 0.0 0.0 20.0 0.0 0.0 0.0 20.0" Properties=species:S:1:pos:R:3:quaternions:R:4:c_diameter[1]:R:1:c_diameter[2]:R:1:c_diameter[3]:R:1:angles:R:1 separation_distance=1.4666666666666668 energy=-1.3258623141199393 pbc="F F F"
X       10.00000000      10.00000000      10.00000000       0.00000000       0.00000000       0.00000000       1.00000000       1.00000000       1.50000000       1.00000000       3.14159265
X       11.46666667      10.00000000      10.00000000       0.17364818       0.00000000       0.00000000       0.98480775       1.00000000       1.50000000       1.00000000       2.79252680
2
Lattice="20.0 0.0 0.0 0.0 20.0 0.0 0.0 0.0 20.0" Properties=species:S:1:pos:R:3:quaternions:R:4:c_diameter[1]:R:1:c_diameter[2]:R:1:c_diameter[3]:R:1:angles:R:1 separation_distance=1.4666666666666668 energy=-1.4457851833387703 pbc="F F F"
X       10.00000000      10.00000000      10.00000000       0.00000000       0.00000000       0.00000000       1.00000000       1.00000000       1.50000000       1.00000000       3.14159265
X       11.46666667      10.00000000      10.00000000       0.00000000       0.00000000       0.00000000       1.00000000       1.00000000       1.50000000       1.00000000       3.14159265
2
Lattice="20.0 0.0 0.0 0.0 20.0 0.0 0.0 0.0 20.0" Properties=species:S:1:pos:R:3:quaternions:R:4:c_diameter[1]:R:1:c_diameter[2]:R:1:c_diameter[3]:R:1:angles:R:1 separation_distance=1.6222222222222222 energy=-0.8573841029804339 pbc="F F F"
X       10.00000000      10.00000000      10.00000000       1.00000000       0.00000000       0.00000000       0.00000000       1.00000000       1.50000000       1.00000000       0.00000000
X       11.62222222      10.00000000      10.00000000       1.00000000       0.00000000       0.00000000       0.00000000       1.00000000       1.50000000       1.00000000       0.00000000
2
Lattice="20.0 0.0 0.0 0.0 20.0 0.0 0.0 0.0 20.0" Properties=species:S:1:pos:R:3:quaternions:R:4:c_diameter[1]:R:1:c_diameter[2]:R:1:c_diameter[3]:R:1:angles:R:1 separation_distance=1.6222222222222222 energy=-1.0061112013198643 pbc="F F F"
X       10.00000000      10.00000000      10.00000000       1.00000000       0.00000000       0.00000000       0.00000000       1.00000000       1.50000000       1.00000000       0.00000000
X       11.62222222      10.00000000      10.00000000       0.98480775       0.00000000       0.00000000       0.17364818       1.00000000       1.50000000       1.00000000       0.34906585
2
Lattice="20.0 0.0 0.0 0.0 20.0 0.0 0.0 0.0 20.0" Properties=species:S:1:pos:R:3:quaternions:R:4:c_diameter[1]:R:1:c_diameter[2]:R:1:c_diameter[3]:R:1:angles:R:1 separation_distance=1.6222222222222222 energy=-1.4952063468154895 pbc="F F F"
X       10.00000000      10.00000000      10.00000000       1.00000000       0.00000000       0.00000000       0.00000000       1.00000000       1.50000000       1.00000000       0.00000000
X       11.62222222      10.00000000      10.00000000       0.93969262       0.00000000       0.00000000       0.34202014       1.00000000       1.50000000       1.00000000       0.69813170
2
Lattice="20.0 0.0 0.0 0.0 20.0 0.0 0.0 0.0 20.0" Properties=species:S:1:pos:R:3:quaternions:R:4:c_diameter[1]:R:1:c_diameter[2]:R:1:c_diameter[3]:R:1:angles:R:1 separation_distance=1.6222222222222222 energy=-2.150972537090186 pbc="F F F"
X       10.00000000      10.00000000      10.00000000       1.00000000       0.00000000       0.00000000       0.00000000       1.00000000       1.50000000       1.00000000       0.00000000
X       11.62222222      10.00000000      10.00000000       0.86602540       0.00000000       0.00000000       0.50000000       1.00000000       1.50000000       1.00000000       1.04719755
2
Lattice="20.0 0.0 0.0 0.0 20.0 0.0 0.0 0.0 20.0" Properties=species:S:1:pos:R:3:quaternions:R:4:c_diameter[1]:R:1:c_diameter[2]:R:1:c_diameter[3]:R:1:angles:R:1 separation_distance=1.6222222222222222 energy=-1.9393480496077433 pbc="F F F"
X       10.00000000      10.00000000      10.00000000       1.00000000       0.00000000       0.00000000       0.00000000       1.00000000       1.50000000       1.00000000       0.00000000
X       11.62222222      10.00000000      10.00000000       0.76604444       0.00000000       0.00000000       0.64278761       1.00000000       1.50000000       1.00000000       1.39626340
2
Lattice="20.0 0.0 0.0 0.0 20.0 0.0 0.0 0.0 20.0" Properties=species:S:1:pos:R:3:quaternions:R:4:c_diameter[1]:R:1:c_diameter[2]:R:1:c_diameter[3]:R:1:angles:R:1 separation_distance=1.6222222222222222 energy=-1.9393480496077447 pbc="F F F"
X       10.00000000      10.00000000      10.00000000       1.00000000       0.00000000       0.00000000       0.00000000       1.00000000       1.50000000       1.00000000       0.00000000
X       11.62222222      10.00000000      10.00000000       0.64278761       0.00000000       0.00000000       0.76604444       1.00000000       1.50000000       1.00000000       1.74532925
2
Lattice="20.0 0.0 0.0 0.0 20.0 0.0 0.0 0.0 20.0" Properties=species:S:1:pos:R:3:quaternions:R:4:c_diameter[1]:R:1:c_diameter[2]:R:1:c_diameter[3]:R:1:angles:R:1 separation_distance=1.6222222222222222 energy=-2.150972537090186 pbc="F F F"
X       10.00000000      10.00000000      10.00000000       1.00000000       0.00000000       0.00000000       0.00000000       1.00000000       1.50000000       1.00000000       0.00000000
X       11.62222222      10.00000000      10.00000000       0.50000000       0.00000000       0.00000000       0.86602540       1.00000000       1.50000000       1.00000000       2.09439510
2
Lattice="20.0 0.0 0.0 0.0 20.0 0.0 0.0 0.0 20.0" Properties=species:S:1:pos:R:3:quaternions:R:4:c_diameter[1]:R:1:c_diameter[2]:R:1:c_diameter[3]:R:1:angles:R:1 separation_distance=1.6222222222222222 energy=-1.4952063468154912 pbc="F F F"
X       10.00000000      10.00000000      10.00000000       1.00000000       0.00000000       0.00000000       0.00000000       1.00000000       1.50000000       1.00000000       0.00000000
X       11.62222222      10.00000000      10.00000000       0.34202014       0.00000000       0.00000000       0.93969262       1.00000000       1.50000000       1.00000000       2.44346095
2
Lattice="20.0 0.0 0.0 0.0 20.0 0.0 0.0 0.0 20.0" Properties=species:S:1:pos:R:3:quaternions:R:4:c_diameter[1]:R:1:c_diameter[2]:R:1:c_diameter[3]:R:1:angles:R:1 separation_distance=1.6222222222222222 energy=-1.0061112013198652 pbc="F F F"
X       10.00000000      10.00000000      10.00000000       1.00000000       0.00000000       0.00000000       0.00000000       1.00000000       1.50000000       1.00000000       0.00000000
X       11.62222222      10.00000000      10.00000000       0.17364818       0.00000000       0.00000000       0.98480775       1.00000000       1.50000000       1.00000000       2.79252680
2
Lattice="20.0 0.0 0.0 0.0 20.0 0.0 0.0 0.0 20.0" Properties=species:S:1:pos:R:3:quaternions:R:4:c_diameter[1]:R:1:c_diameter[2]:R:1:c_diameter[3]:R:1:angles:R:1 separation_distance=1.6222222222222222 energy=-0.8573841029804339 pbc="F F F"
X       10.00000000      10.00000000      10.00000000       1.00000000       0.00000000       0.00000000       0.00000000       1.00000000       1.50000000       1.00000000       0.00000000
X       11.62222222      10.00000000      10.00000000       0.00000000       0.00000000       0.00000000       1.00000000       1.00000000       1.50000000       1.00000000       3.14159265
2
Lattice="20.0 0.0 0.0 0.0 20.0 0.0 0.0 0.0 20.0" Properties=species:S:1:pos:R:3:quaternions:R:4:c_diameter[1]:R:1:c_diameter[2]:R:1:c_diameter[3]:R:1:angles:R:1 separation_distance=1.6222222222222222 energy=-1.0061112013198643 pbc="F F F"
X       10.00000000      10.00000000      10.00000000       0.98480775       0.00000000       0.00000000       0.17364818       1.00000000       1.50000000       1.00000000       0.34906585
X       11.62222222      10.00000000      10.00000000       1.00000000       0.00000000       0.00000000       0.00000000       1.00000000       1.50000000       1.00000000       0.00000000
2
Lattice="20.0 0.0 0.0 0.0 20.0 0.0 0.0 0.0 20.0" Properties=species:S:1:pos:R:3:quaternions:R:4:c_diameter[1]:R:1:c_diameter[2]:R:1:c_diameter[3]:R:1:angles:R:1 separation_distance=1.6222222222222222 energy=-1.1434199180888107 pbc="F F F"
X       10.00000000      10.00000000      10.00000000       0.98480775       0.00000000       0.00000000       0.17364818       1.00000000       1.50000000       1.00000000       0.34906585
X       11.62222222      10.00000000      10.00000000       0.98480775       0.00000000       0.00000000       0.17364818       1.00000000       1.50000000       1.00000000       0.34906585
2
Lattice="20.0 0.0 0.0 0.0 20.0 0.0 0.0 0.0 20.0" Properties=species:S:1:pos:R:3:quaternions:R:4:c_diameter[1]:R:1:c_diameter[2]:R:1:c_diameter[3]:R:1:angles:R:1 separation_distance=1.6222222222222222 energy=-1.6597630397172594 pbc="F F F"
X       10.00000000      10.00000000      10.00000000       0.98480775       0.00000000       0.00000000       0.17364818       1.00000000       1.50000000       1.00000000       0.34906585
X       11.62222222      10.00000000      10.00000000       0.93969262       0.00000000       0.00000000       0.34202014       1.00000000       1.50000000       1.00000000       0.69813170
2
Lattice="20.0 0.0 0.0 0.0 20.0 0.0 0.0 0.0 20.0" Properties=species:S:1:pos:R:3:quaternions:R:4:c_diameter[1]:R:1:c_diameter[2]:R:1:c_diameter[3]:R:1:angles:R:1 separation_distance=1.6222222222222222 energy=-2.4182099144933242 pbc="F F F"
X       10.00000000      10.00000000      10.00000000       0.98480775       0.00000000       0.00000000       0.17364818       1.00000000       1.50000000       1.00000000       0.34906585
X       11.62222222      10.00000000      10.00000000       0.86602540       0.00000000       0.00000000       0.50000000       1.00000000       1.50000000       1.00000000       1.04719755
2
Lattice="20.0 0.0 0.0 0.0 20.0 0.0 0.0 0.0 20.0" Properties=species:S:1:pos:R:3:quaternions:R:4:c_diameter[1]:R:1:c_diameter[2]:R:1:c_diameter[3]:R:1:angles:R:1 separation_distance=1.6222222222222222 energy=-1.9667271738170853 pbc="F F F"
X       10.00000000      10.00000000      10.00000000       0.98480775       0.00000000       0.00000000       0.17364818       1.00000000       1.50000000       1.00000000       0.34906585
X       11.62222222      10.00000000      10.00000000       0.76604444       0.00000000       0.00000000       0.64278761       1.00000000       1.50000000       1.00000000       1.39626340
2
Lattice="20.0 0.0 0.0 0.0 20.0 0.0 0.0 0.0 20.0" Properties=species:S:1:pos:R:3:quaternions:R:4:c_diameter[1]:R:1:c_diameter[2]:R:1:c_diameter[3]:R:1:angles:R:1 separation_distance=1.6222222222222222 energy=-1.2076849764653006 pbc="F F F"
X       10.00000000      10.00000000      10.00000000       0.98480775       0.00000000       0.00000000       0.17364818       1.00000000       1.50000000       1.00000000       0.34906585
X       11.62222222      10.00000000      10.00000000       0.64278761       0.00000000       0.00000000       0.76604444       1.00000000       1.50000000       1.00000000       1.74532925
2
Lattice="20.0 0.0 0.0 0.0 20.0 0.0 0.0 0.0 20.0" Properties=species:S:1:pos:R:3:quaternions:R:4:c_diameter[1]:R:1:c_diameter[2]:R:1:c_diameter[3]:R:1:angles:R:1 separation_distance=1.6222222222222222 energy=-2.119417427396174 pbc="F F F"
X       10.00000000      10.00000000      10.00000000       0.98480775       0.00000000       0.00000000       0.17364818       1.00000000       1.50000000       1.00000000       0.34906585
X       11.62222222      10.00000000      10.00000000       0.50000000       0.00000000       0.00000000       0.86602540       1.00000000       1.50000000       1.00000000       2.09439510
2
Lattice="20.0 0.0 0.0 0.0 20.0 0.0 0.0 0.0 20.0" Properties=species:S:1:pos:R:3:quaternions:R:4:c_diameter[1]:R:1:c_diameter[2]:R:1:c_diameter[3]:R:1:angles:R:1 separation_distance=1.6222222222222222 energy=-1.7550516744778901 pbc="F F F"
X       10.00000000      10.00000000      10.00000000       0.98480775       0.00000000       0.00000000       0.17364818       1.00000000       1.50000000       1.00000000       0.34906585
X       11.62222222      10.00000000      10.00000000       0.34202014       0.00000000       0.00000000       0.93969262       1.00000000       1.50000000       1.00000000       2.44346095
2
Lattice="20.0 0.0 0.0 0.0 20.0 0.0 0.0 0.0 20.0" Properties=species:S:1:pos:R:3:quaternions:R:4:c_diameter[1]:R:1:c_diameter[2]:R:1:c_diameter[3]:R:1:angles:R:1 separation_distance=1.6222222222222222 energy=-1.205938795403273 pbc="F F F"
X       10.00000000      10.00000000      10.00000000       0.98480775       0.00000000       0.00000000       0.17364818       1.00000000       1.50000000       1.00000000       0.34906585
X       11.62222222      10.00000000      10.00000000       0.17364818       0.00000000       0.00000000       0.98480775       1.00000000       1.50000000       1.00000000       2.79252680
2
Lattice="20.0 0.0 0.0 0.0 20.0 0.0 0.0 0.0 20.0" Properties=species:S:1:pos:R:3:quaternions:R:4:c_diameter[1]:R:1:c_diameter[2]:R:1:c_diameter[3]:R:1:angles:R:1 separation_distance=1.6222222222222222 energy=-1.0061112013198636 pbc="F F F"
X       10.00000000      10.00000000      10.00000000       0.98480775       0.00000000       0.00000000       0.17364818       1.00000000       1.50000000       1.00000000       0.34906585
X       11.62222222      10.00000000      10.00000000       0.00000000       0.00000000       0.00000000       1.00000000       1.00000000       1.50000000       1.00000000       3.14159265
2
Lattice="20.0 0.0 0.0 0.0 20.0 0.0 0.0 0.0 20.0" Properties=species:S:1:pos:R:3:quaternions:R:4:c_diameter[1]:R:1:c_diameter[2]:R:1:c_diameter[3]:R:1:angles:R:1 separation_distance=1.6222222222222222 energy=-1.4952063468154895 pbc="F F F"
X       10.00000000      10.00000000      10.00000000       0.93969262       0.00000000       0.00000000       0.34202014       1.00000000       1.50000000       1.00000000       0.69813170
X       11.62222222      10.00000000      10.00000000       1.00000000       0.00000000       0.00000000       0.00000000       1.00000000       1.50000000       1.00000000       0.00000000
2
Lattice="20.0 0.0 0.0 0.0 20.0 0.0 0.0 0.0 20.0" Properties=species:S:1:pos:R:3:quaternions:R:4:c_diameter[1]:R:1:c_diameter[2]:R:1:c_diameter[3]:R:1:angles:R:1 separation_distance=1.6222222222222222 energy=-1.6597630397172594 pbc="F F F"
X       10.00000000      10.00000000      10.00000000       0.93969262       0.00000000       0.00000000       0.34202014       1.00000000       1.50000000       1.00000000       0.69813170
X       11.62222222      10.00000000      10.00000000       0.98480775       0.00000000       0.00000000       0.17364818       1.00000000       1.50000000       1.00000000       0.34906585
2
Lattice="20.0 0.0 0.0 0.0 20.0 0.0 0.0 0.0 20.0" Properties=species:S:1:pos:R:3:quaternions:R:4:c_diameter[1]:R:1:c_diameter[2]:R:1:c_diameter[3]:R:1:angles:R:1 separation_distance=1.6222222222222222 energy=-2.3099967368330505 pbc="F F F"
X       10.00000000      10.00000000      10.00000000       0.93969262       0.00000000       0.00000000       0.34202014       1.00000000       1.50000000       1.00000000       0.69813170
X       11.62222222      10.00000000      10.00000000       0.93969262       0.00000000       0.00000000       0.34202014       1.00000000       1.50000000       1.00000000       0.69813170
2
Lattice="20.0 0.0 0.0 0.0 20.0 0.0 0.0 0.0 20.0" Properties=species:S:1:pos:R:3:quaternions:R:4:c_diameter[1]:R:1:c_diameter[2]:R:1:c_diameter[3]:R:1:angles:R:1 separation_distance=1.6222222222222222 energy=-2.982394166613256 pbc="F F F"
X       10.00000000      10.00000000      10.00000000       0.93969262       0.00000000       0.00000000       0.34202014       1.00000000       1.50000000       1.00000000       0.69813170
X       11.62222222      10.00000000      10.00000000       0.86602540       0.00000000       0.00000000       0.50000000       1.00000000       1.50000000       1.00000000       1.04719755
2
Lattice="20.0 0.0 0.0 0.0 20.0 0.0 0.0 0.0 20.0" Properties=species:S:1:pos:R:3:quaternions:R:4:c_diameter[1]:R:1:c_diameter[2]:R:1:c_diameter[3]:R:1:angles:R:1 separation_distance=1.6222222222222222 energy=-0.1414633132055968 pbc="F F F"
X       10.00000000      10.00000000      10.00000000       0.93969262       0.00000000       0.00000000       0.34202014       1.00000000       1.50000000       1.00000000       0.69813170
X       11.62222222      10.00000000      10.00000000       0.50000000       0.00000000       0.00000000       0.86602540       1.00000000       1.50000000       1.00000000       2.09439510
2
Lattice="20.0 0.0 0.0 0.0 20.0 0.0 0.0 0.0 20.0" Properties=species:S:1:pos:R:3:quaternions:R:4:c_diameter[1]:R:1:c_diameter[2]:R:1:c_diameter[3]:R:1:angles:R:1 separation_distance=1.6222222222222222 energy=-2.1265273327984286 pbc="F F F"
X       10.00000000      10.00000000      10.00000000       0.93969262       0.00000000       0.00000000       0.34202014       1.00000000       1.50000000       1.00000000       0.69813170
X       11.62222222      10.00000000      10.00000000       0.34202014       0.00000000       0.00000000       0.93969262       1.00000000       1.50000000       1.00000000       2.44346095
2
Lattice="20.0 0.0 0.0 0.0 20.0 0.0 0.0 0.0 20.0" Properties=species:S:1:pos:R:3:quaternions:R:4:c_diameter[1]:R:1:c_diameter[2]:R:1:c_diameter[3]:R:1:angles:R:1 separation_distance=1.6222222222222222 energy=-1.7550516744778908 pbc="F F F"
X       10.00000000      10.00000000      10.00000000       0.93969262       0.00000000       0.00000000       0.34202014       1.00000000       1.50000000       1.00000000       0.69813170
X       11.62222222      10.00000000      10.00000000       0.17364818       0.00000000       0.00000000       0.98480775       1.00000000       1.50000000       1.00000000       2.79252680
2
Lattice="20.0 0.0 0.0 0.0 20.0 0.0 0.0 0.0 20.0" Properties=species:S:1:pos:R:3:quaternions:R:4:c_diameter[1]:R:1:c_diameter[2]:R:1:c_diameter[3]:R:1:angles:R:1 separation_distance=1.6222222222222222 energy=-1.4952063468154895 pbc="F F F"
X       10.00000000      10.00000000      10.00000000       0.93969262       0.00000000       0.00000000       0.34202014       1.00000000       1.50000000       1.00000000       0.69813170
X       11.62222222      10.00000000      10.00000000       0.00000000       0.00000000       0.00000000       1.00000000       1.00000000       1.50000000       1.00000000       3.14159265
2
Lattice="20.0 0.0 0.0 0.0 20.0 0.0 0.0 0.0 20.0" Properties=species:S:1:pos:R:3:quaternions:R:4:c_diameter[1]:R:1:c_diameter[2]:R:1:c_diameter[3]:R:1:angles:R:1 separation_distance=1.6222222222222222 energy=-2.150972537090186 pbc="F F F"
X       10.00000000      10.00000000      10.00000000       0.86602540       0.00000000       0.00000000       0.50000000       1.00000000       1.50000000       1.00000000       1.04719755
X       11.62222222      10.00000000      10.00000000       1.00000000       0.00000000       0.00000000       0.00000000       1.00000000       1.50000000       1.00000000       0.00000000
2
Lattice="20.0 0.0 0.0 0.0 20.0 0.0 0.0 0.0 20.0" Properties=species:S:1:pos:R:3:quaternions:R:4:c_diameter[1]:R:1:c_diameter[2]:R:1:c_diameter[3]:R:1:angles:R:1 separation_distance=1.6222222222222222 energy=-2.4182099144933242 pbc="F F F"
X       10.00000000      10.00000000      10.00000000       0.86602540       0.00000000       0.00000000       0.50000000       1.00000000       1.50000000       1.00000000       1.04719755
X       11.62222222      10.00000000      10.00000000       0.98480775       0.00000000       0.00000000       0.17364818       1.00000000       1.50000000       1.00000000       0.34906585
2
Lattice="20.0 0.0 0.0 0.0 20.0 0.0 0.0 0.0 20.0" Properties=species:S:1:pos:R:3:quaternions:R:4:c_diameter[1]:R:1:c_diameter[2]:R:1:c_diameter[3]:R:1:angles:R:1 separation_distance=1.6222222222222222 energy=-2.982394166613256 pbc="F F F"
X       10.00000000      10.00000000      10.00000000       0.86602540       0.00000000       0.00000000       0.50000000       1.00000000       1.50000000       1.00000000       1.04719755
X       11.62222222      10.00000000      10.00000000       0.93969262       0.00000000       0.00000000       0.34202014       1.00000000       1.50000000       1.00000000       0.69813170
2
Lattice="20.0 0.0 0.0 0.0 20.0 0.0 0.0 0.0 20.0" Properties=species:S:1:pos:R:3:quaternions:R:4:c_diameter[1]:R:1:c_diameter[2]:R:1:c_diameter[3]:R:1:angles:R:1 separation_distance=1.6222222222222222 energy=-0.6181414488822053 pbc="F F F"
X       10.00000000      10.00000000      10.00000000       0.86602540       0.00000000       0.00000000       0.50000000       1.00000000       1.50000000       1.00000000       1.04719755
X       11.62222222      10.00000000      10.00000000       0.86602540       0.00000000       0.00000000       0.50000000       1.00000000       1.50000000       1.00000000       1.04719755
2