2
Lattice="20.0 0.0 0.0 0.0 20.0 0.0 0.0 0.0 20.0" Properties=species:S:1:pos:R:3:quaternions:R:4:c_diameter[1]:R:1:c_diameter[2]:R:1:c_diameter[3]:R:1 separation_distance=1.7449494949494948 energy=-2.2615503255818497 pbc="F F F"
X       10.00000000      10.00000000      10.00000000       0.00000000       0.00000000       0.70710678       0.70710678       1.00000000       1.50000000       1.00000000
X       11.74494949      10.00000000      10.00000000       0.00000000       0.00000000       0.70710678       0.70710678       1.00000000       1.50000000       1.00000000
2
Lattice="20.0 0.0 0.0 0.0 20.0 0.0 0.0 0.0 20.0" Properties=species:S:1:pos:R:3:quaternions:R:4:c_diameter[1]:R:1:c_diameter[2]:R:1:c_diameter[3]:R:1 separation_distance=1.7625752474237322 energy=-3.972987498455953 pbc="F F F"
X       10.00000000      10.00000000      10.00000000       0.00000000       0.00000000       0.70710678       0.70710678       1.00000000       1.50000000       1.00000000
X       11.76257525      10.00000000      10.00000000       0.00000000       0.00000000       0.70710678       0.70710678       1.00000000       1.50000000       1.00000000
2
Lattice="20.0 0.0 0.0 0.0 20.0 0.0 0.0 0.0 20.0" Properties=species:S:1:pos:R:3:quaternions:R:4:c_diameter[1]:R:1:c_diameter[2]:R:1:c_diameter[3]:R:1 separation_distance=1.7802009998979695 energy=-4.72711244870046 pbc="F F F"
X       10.00000000      10.00000000      10.00000000       0.00000000       0.00000000       0.70710678       0.70710678       1.00000000       1.50000000       1.00000000
X       11.78020100      10.00000000      10.00000000       0.00000000       0.00000000       0.70710678       0.70710678       1.00000000       1.50000000       1.00000000
2
Lattice="20.0 0.0 0.0 0.0 20.0 0.0 0.0 0.0 20.0" Properties=species:S:1:pos:R:3:quaternions:R:4:c_diameter[1]:R:1:c_diameter[2]:R:1:c_diameter[3]:R:1 separation_distance=1.7978267523722067 energy=-4.9421875149075545 pbc="F F F"
X       10.00000000      10.00000000      10.00000000       0.00000000       0.00000000       0.70710678       0.70710678       1.00000000       1.50000000       1.00000000
X       11.79782675      10.00000000      10.00000000       0.00000000       0.00000000       0.70710678       0.70710678       1.00000000       1.50000000       1.00000000
2
Lattice="20.0 0.0 0.0 0.0 20.0 0.0 0.0 0.0 20.0" Properties=species:S:1:pos:R:3:quaternions:R:4:c_diameter[1]:R:1:c_diameter[2]:R:1:c_diameter[3]:R:1 separation_distance=1.815452504846444 energy=-4.860472176510131 pbc="F F F"
X       10.00000000      10.00000000      10.00000000       0.00000000       0.00000000       0.70710678       0.70710678       1.00000000       1.50000000       1.00000000
X       11.81545250      10.00000000      10.00000000       0.00000000       0.00000000       0.70710678       0.70710678       1.00000000       1.50000000       1.00000000
2
Lattice="20.0 0.0 0.0 0.0 20.0 0.0 0.0 0.0 20.0" Properties=species:S:1:pos:R:3:quaternions:R:4:c_diameter[1]:R:1:c_diameter[2]:R:1:c_diameter[3]:R:1 separation_distance=1.8330782573206814 energy=-4.622957240275279 pbc="F F F"
X       10.00000000      10.00000000      10.00000000       0.00000000       0.00000000       0.70710678       0.70710678       1.00000000       1.50000000       1.00000000
X       11.83307826      10.00000000      10.00000000       0.00000000       0.00000000       0.70710678       0.70710678       1.00000000       1.50000000       1.00000000
2
Lattice="20.0 0.0 0.0 0.0 20.0 0.0 0.0 0.0 20.0" Properties=species:S:1:pos:R:3:quaternions:R:4:c_diameter[1]:R:1:c_diameter[2]:R:1:c_diameter[3]:R:1 separation_distance=1.8507040097949188 energy=-4.311616925861466 pbc="F F F"
X       10.00000000      10.00000000      10.00000000       0.00000000       0.00000000       0.70710678       0.70710678       1.00000000       1.50000000       1.00000000
X       11.85070401      10.00000000      10.00000000       0.00000000       0.00000000       0.70710678       0.70710678       1.00000000       1.50000000       1.00000000
2
Lattice="20.0 0.0 0.0 0.0 20.0 0.0 0.0 0.0 20.0" Properties=species:S:1:pos:R:3:quaternions:R:4:c_diameter[1]:R:1:c_diameter[2]:R:1:c_diameter[3]:R:1 separation_distance=1.8683297622691561 energy=-3.9736929504303466 pbc="F F F"
X       10.00000000      10.00000000      10.00000000       0.00000000       0.00000000       0.70710678       0.70710678       1.00000000       1.50000000       1.00000000
X       11.86832976      10.00000000      10.00000000       0.00000000       0.00000000       0.70710678       0.70710678       1.00000000       1.50000000       1.00000000
2
Lattice="20.0 0.0 0.0 0.0 20.0 0.0 0.0 0.0 20.0" Properties=species:S:1:pos:R:3:quaternions:R:4:c_diameter[1]:R:1:c_diameter[2]:R:1:c_diameter[3]:R:1 separation_distance=1.8859555147433933 energy=-3.635852478014047 pbc="F F F"
X       10.00000000      10.00000000      10.00000000       0.00000000       0.00000000       0.70710678       0.70710678       1.00000000       1.50000000       1.00000000
X       11.88595551      10.00000000      10.00000000       0.00000000       0.00000000       0.70710678       0.70710678       1.00000000       1.50000000       1.00000000
2
Lattice="20.0 0.0 0.0 0.0 20.0 0.0 0.0 0.0 20.0" Properties=species:S:1:pos:R:3:quaternions:R:4:c_diameter[1]:R:1:c_diameter[2]:R:1:c_diameter[3]:R:1 separation_distance=1.9035812672176307 energy=-3.312542916841913 pbc="F F F"
X       10.00000000      10.00000000      10.00000000       0.00000000       0.00000000       0.70710678       0.70710678       1.00000000       1.50000000       1.00000000
X       11.90358127      10.00000000      10.00000000       0.00000000       0.00000000       0.70710678       0.70710678       1.00000000       1.50000000       1.00000000
2
Lattice="20.0 0.0 0.0 0.0 20.0 0.0 0.0 0.0 20.0" Properties=species:S:1:pos:R:3:quaternions:R:4:c_diameter[1]:R:1:c_diameter[2]:R:1:c_diameter[3]:R:1 separation_distance=1.921207019691868 energy=-3.01097088028527 pbc="F F F"
X       10.00000000      10.00000000      10.00000000       0.00000000       0.00000000       0.70710678       0.70710678       1.00000000       1.50000000       1.00000000
X       11.92120702      10.00000000      10.00000000       0.00000000       0.00000000       0.70710678       0.70710678       1.00000000       1.50000000       1.00000000
2
Lattice="20.0 0.0 0.0 0.0 20.0 0.0 0.0 0.0 20.0" Properties=species:S:1:pos:R:3:quaternions:R:4:c_diameter[1]:R:1:c_diameter[2]:R:1:c_diameter[3]:R:1 separation_distance=1.9388327721661054 energy=-2.734091237087768 pbc="F F F"
X       10.00000000      10.00000000      10.00000000       0.00000000       0.00000000       0.70710678       0.70710678       1.00000000       1.50000000       1.00000000
X       11.93883277      10.00000000      10.00000000       0.00000000       0.00000000       0.70710678       0.70710678       1.00000000       1.50000000       1.00000000
2
Lattice="20.0 0.0 0.0 0.0 20.0 0.0 0.0 0.0 20.0" Properties=species:S:1:pos:R:3:quaternions:R:4:c_diameter[1]:R:1:c_diameter[2]:R:1:c_diameter[3]:R:1 separation_distance=1.9564585246403428 energy=-2.4824096923381114 pbc="F F F"
X       10.00000000      10.00000000      10.00000000       0.00000000       0.00000000       0.70710678       0.70710678       1.00000000       1.50000000       1.00000000
X       11.95645852      10.00000000      10.00000000       0.00000000       0.00000000       0.70710678       0.70710678       1.00000000       1.50000000       1.00000000
2
Lattice="20.0 0.0 0.0 0.0 20.0 0.0 0.0 0.0 20.0" Properties=species:S:1:pos:R:3:quaternions:R:4:c_diameter[1]:R:1:c_diameter[2]:R:1:c_diameter[3]:R:1 separation_distance=1.97408427711458 energy=-2.2550710979341955 pbc="F F F"
X       10.00000000      10.00000000      10.00000000       0.00000000       0.00000000       0.70710678       0.70710678       1.00000000       1.50000000       1.00000000
X       11.97408428      10.00000000      10.00000000       0.00000000       0.00000000       0.70710678       0.70710678       1.00000000       1.50000000       1.00000000
2
Lattice="20.0 0.0 0.0 0.0 20.0 0.0 0.0 0.0 20.0" Properties=species:S:1:pos:R:3:quaternions:R:4:c_diameter[1]:R:1:c_diameter[2]:R:1:c_diameter[3]:R:1 separation_distance=1.9917100295888173 energy=-2.050514437906082 pbc="F F F"
X       10.00000000      10.00000000      10.00000000       0.00000000       0.00000000       0.70710678       0.70710678       1.00000000       1.50000000       1.00000000
X       11.99171003      10.00000000      10.00000000       0.00000000       0.00000000       0.70710678       0.70710678       1.00000000       1.50000000       1.00000000
2
Lattice="20.0 0.0 0.0 0.0 20.0 0.0 0.0 0.0 20.0" Properties=species:S:1:pos:R:3:quaternions:R:4:c_diameter[1]:R:1:c_diameter[2]:R:1:c_diameter[3]:R:1 separation_distance=2.0093357820630544 energy=-1.8668634616089117 pbc="F F F"
X       10.00000000      10.00000000      10.00000000       0.00000000       0.00000000       0.70710678       0.70710678       1.00000000       1.50000000       1.00000000
X       12.00933578      10.00000000      10.00000000       0.00000000       0.00000000       0.70710678       0.70710678       1.00000000       1.50000000       1.00000000
2
Lattice="20.0 0.0 0.0 0.0 20.0 0.0 0.0 0.0 20.0" Properties=species:S:1:pos:R:3:quaternions:R:4:c_diameter[1]:R:1:c_diameter[2]:R:1:c_diameter[3]:R:1 separation_distance=2.0269615345372918 energy=-1.702155546585458 pbc="F F F"
X       10.00000000      10.00000000      10.00000000       0.00000000       0.00000000       0.70710678       0.70710678       1.00000000       1.50000000       1.00000000
X       12.02696153      10.00000000      10.00000000       0.00000000       0.00000000       0.70710678       0.70710678       1.00000000       1.50000000       1.00000000
2
Lattice="20.0 0.0 0.0 0.0 20.0 0.0 0.0 0.0 20.0" Properties=species:S:1:pos:R:3:quaternions:R:4:c_diameter[1]:R:1:c_diameter[2]:R:1:c_diameter[3]:R:1 separation_distance=2.044587287011529 energy=-1.5544715548293986 pbc="F F F"
X       10.00000000      10.00000000      10.00000000       0.00000000       0.00000000       0.70710678       0.70710678       1.00000000       1.50000000       1.00000000
X       12.04458729      10.00000000      10.00000000       0.00000000       0.00000000       0.70710678       0.70710678       1.00000000       1.50000000       1.00000000
2
Lattice="20.0 0.0 0.0 0.0 20.0 0.0 0.0 0.0 20.0" Properties=species:S:1:pos:R:3:quaternions:R:4:c_diameter[1]:R:1:c_diameter[2]:R:1:c_diameter[3]:R:1 separation_distance=2.0622130394857665 energy=-1.4220053196495834 pbc="F F F"
X       10.00000000      10.00000000      10.00000000       0.00000000       0.00000000       0.70710678       0.70710678       1.00000000       1.50000000       1.00000000
X       12.06221304      10.00000000      10.00000000       0.00000000       0.00000000       0.70710678       0.70710678       1.00000000       1.50000000       1.00000000
2
Lattice="20.0 0.0 0.0 0.0 20.0 0.0 0.0 0.0 20.0" Properties=species:S:1:pos:R:3:quaternions:R:4:c_diameter[1]:R:1:c_diameter[2]:R:1:c_diameter[3]:R:1 separation_distance=2.079838791960004 energy=-1.3030966492797262 pbc="F F F"
X       10.00000000      10.00000000      10.00000000       0.00000000       0.00000000       0.70710678       0.70710678       1.00000000       1.50000000       1.00000000
X       12.07983879      10.00000000      10.00000000       0.00000000       0.00000000       0.70710678       0.70710678       1.00000000       1.50000000       1.00000000
2
Lattice="20.0 0.0 0.0 0.0 20.0 0.0 0.0 0.0 20.0" Properties=species:S:1:pos:R:3:quaternions:R:4:c_diameter[1]:R:1:c_diameter[2]:R:1:c_diameter[3]:R:1 separation_distance=2.0974645444342412 energy=-1.1962426444201348 pbc="F F F"
X       10.00000000      10.00000000      10.00000000       0.00000000       0.00000000       0.70710678       0.70710678       1.00000000       1.50000000       1.00000000
X       12.09746454      10.00000000      10.00000000       0.00000000       0.00000000       0.70710678       0.70710678       1.00000000       1.50000000       1.00000000
2
Lattice="20.0 0.0 0.0 0.0 20.0 0.0 0.0 0.0 20.0" Properties=species:S:1:pos:R:3:quaternions:R:4:c_diameter[1]:R:1:c_diameter[2]:R:1:c_diameter[3]:R:1 separation_distance=2.1150902969084786 energy=-1.100096490754652 pbc="F F F"
X       10.00000000      10.00000000      10.00000000       0.00000000       0.00000000       0.70710678       0.70710678       1.00000000       1.50000000       1.00000000
X       12.11509030      10.00000000      10.00000000       0.00000000       0.00000000       0.70710678       0.70710678       1.00000000       1.50000000       1.00000000
2
Lattice="20.0 0.0 0.0 0.0 20.0 0.0 0.0 0.0 20.0" Properties=species:S:1:pos:R:3:quaternions:R:4:c_diameter[1]:R:1:c_diameter[2]:R:1:c_diameter[3]:R:1 separation_distance=2.132716049382716 energy=-1.0134593752381797 pbc="F F F"
X       10.00000000      10.00000000      10.00000000       0.00000000       0.00000000       0.70710678       0.70710678       1.00000000       1.50000000       1.00000000
X       12.13271605      10.00000000      10.00000000       0.00000000       0.00000000       0.70710678       0.70710678       1.00000000       1.50000000       1.00000000
2
Lattice="20.0 0.0 0.0 0.0 20.0 0.0 0.0 0.0 20.0" Properties=species:S:1:pos:R:3:quaternions:R:4:c_diameter[1]:R:1:c_diameter[2]:R:1:c_diameter[3]:R:1 separation_distance=2.1503418018569533 energy=-0.9352689791314203 pbc="F F F"
X       10.00000000      10.00000000      10.00000000       0.00000000       0.00000000       0.70710678       0.70710678       1.00000000       1.50000000       1.00000000
X       12.15034180      10.00000000      10.00000000       0.00000000       0.00000000       0.70710678       0.70710678       1.00000000       1.50000000       1.00000000
2
Lattice="20.0 0.0 0.0 0.0 20.0 0.0 0.0 0.0 20.0" Properties=species:S:1:pos:R:3:quaternions:R:4:c_diameter[1]:R:1:c_diameter[2]:R:1:c_diameter[3]:R:1 separation_distance=2.1679675543311907 energy=-0.8645866262065605 pbc="F F F"
X       10.00000000      10.00000000      10.00000000       0.00000000       0.00000000       0.70710678       0.70710678       1.00000000       1.50000000       1.00000000
X       12.16796755      10.00000000      10.00000000       0.00000000       0.00000000       0.70710678       0.70710678       1.00000000       1.50000000       1.00000000
2
Lattice="20.0 0.0 0.0 0.0 20.0 0.0 0.0 0.0 20.0" Properties=species:S:1:pos:R:3:quaternions:R:4:c_diameter[1]:R:1:c_diameter[2]:R:1:c_diameter[3]:R:1 separation_distance=2.185593306805428 energy=-0.8005843050726005 pbc="F F F"
X       10.00000000      10.00000000      10.00000000       0.00000000       0.00000000       0.70710678       0.70710678       1.00000000       1.50000000       1.00000000
X       12.18559331      10.00000000      10.00000000       0.00000000       0.00000000       0.70710678       0.70710678       1.00000000       1.50000000       1.00000000
2
Lattice="20.0 0.0 0.0 0.0 20.0 0.0 0.0 0.0 20.0" Properties=species:S:1:pos:R:3:quaternions:R:4:c_diameter[1]:R:1:c_diameter[2]:R:1:c_diameter[3]:R:1 separation_distance=2.203219059279665 energy=-0.742532249426716 pbc="F F F"
X       10.00000000      10.00000000      10.00000000       0.00000000       0.00000000       0.70710678       0.70710678       1.00000000       1.50000000       1.00000000
X       12.20321906      10.00000000      10.00000000       0.00000000       0.00000000       0.70710678       0.70710678       1.00000000       1.50000000       1.00000000
2
Lattice="20.0 0.0 0.0 0.0 20.0 0.0 0.0 0.0 20.0" Properties=species:S:1:pos:R:3:quaternions:R:4:c_diameter[1]:R:1:c_diameter[2]:R:1:c_diameter[3]:R:1 separation_distance=2.2208448117539024 energy=-0.689787429625188 pbc="F F F"
X       10.00000000      10.00000000      10.00000000       0.00000000       0.00000000       0.70710678       0.70710678       1.00000000       1.50000000       1.00000000
X       12.22084481      10.00000000      10.00000000       0.00000000       0.00000000       0.70710678       0.70710678       1.00000000       1.50000000       1.00000000
2
Lattice="20.0 0.0 0.0 0.0 20.0 0.0 0.0 0.0 20.0" Properties=species:S:1:pos:R:3:quaternions:R:4:c_diameter[1]:R:1:c_diameter[2]:R:1:c_diameter[3]:R:1 separation_distance=2.2384705642281397 energy=-0.6417831078754744 pbc="F F F"
X       10.00000000      10.00000000      10.00000000       0.00000000       0.00000000       0.70710678       0.70710678       1.00000000       1.50000000       1.00000000
X       12.23847056      10.00000000      10.00000000       0.00000000       0.00000000       0.70710678       0.70710678       1.00000000       1.50000000       1.00000000
2
Lattice="20.0 0.0 0.0 0.0 20.0 0.0 0.0 0.0 20.0" Properties=species:S:1:pos:R:3:quaternions:R:4:c_diameter[1]:R:1:c_diameter[2]:R:1:c_diameter[3]:R:1 separation_distance=2.256096316702377 energy=-0.5980194898233396 pbc="F F F"
X       10.00000000      10.00000000      10.00000000       0.00000000       0.00000000       0.70710678       0.70710678       1.00000000       1.50000000       1.00000000
X       12.25609632      10.00000000      10.00000000       0.00000000       0.00000000       0.70710678       0.70710678       1.00000000       1.50000000       1.00000000
2
Lattice="20.0 0.0 0.0 0.0 20.0 0.0 0.0 0.0 20.0" Properties=species:S:1:pos:R:3:quaternions:R:4:c_diameter[1]:R:1:c_diameter[2]:R:1:c_diameter[3]:R:1 separation_distance=2.2737220691766145 energy=-0.5580554370037415 pbc="F F F"
X       10.00000000      10.00000000      10.00000000       0.00000000       0.00000000       0.70710678       0.70710678       1.00000000       1.50000000       1.00000000
X       12.27372207      10.00000000      10.00000000       0.00000000       0.00000000       0.70710678       0.70710678       1.00000000       1.50000000       1.00000000
2
Lattice="20.0 0.0 0.0 0.0 20.0 0.0 0.0 0.0 20.0" Properties=species:S:1:pos:R:3:quaternions:R:4:c_diameter[1]:R:1:c_diameter[2]:R:1:c_diameter[3]:R:1 separation_distance=2.291347821650852 energy=-0.5215011682272307 pbc="F F F"
X       10.00000000      10.00000000      10.00000000       0.00000000       0.00000000       0.70710678       0.70710678       1.00000000       1.50000000       1.00000000
X       12.29134782      10.00000000      10.00000000       0.00000000       0.00000000       0.70710678       0.70710678       1.00000000       1.50000000       1.00000000
2
Lattice="20.0 0.0 0.0 0.0 20.0 0.0 0.0 0.0 20.0" Properties=species:S:1:pos:R:3:quaternions:R:4:c_diameter[1]:R:1:c_diameter[2]:R:1:c_diameter[3]:R:1 separation_distance=2.308973574125089 energy=-0.48801186118821577 pbc="F F F"
X       10.00000000      10.00000000      10.00000000       0.00000000       0.00000000       0.70710678       0.70710678       1.00000000       1.50000000       1.00000000
X       12.30897357      10.00000000      10.00000000       0.00000000       0.00000000       0.70710678       0.70710678       1.00000000       1.50000000       1.00000000
2
Lattice="20.0 0.0 0.0 0.0 20.0 0.0 0.0 0.0 20.0" Properties=species:S:1:pos:R:3:quaternions:R:4:c_diameter[1]:R:1:c_diameter[2]:R:1:c_diameter[3]:R:1 separation_distance=2.3265993265993266 energy=-0.4572820605920097 pbc="F F F"
X       10.00000000      10.00000000      10.00000000       0.00000000       0.00000000       0.70710678       0.70710678       1.00000000       1.50000000       1.00000000
X       12.32659933      10.00000000      10.00000000       0.00000000       0.00000000       0.70710678       0.70710678       1.00000000       1.50000000       1.00000000
2
Lattice="20.0 0.0 0.0 0.0 20.0 0.0 0.0 0.0 20.0" Properties=species:S:1:pos:R:3:quaternions:R:4:c_diameter[1]:R:1:c_diameter[2]:R:1:c_diameter[3]:R:1 separation_distance=2.3442250790735635 energy=-0.429040800958441 pbc="F F F"
X       10.00000000      10.00000000      10.00000000       0.00000000       0.00000000       0.70710678       0.70710678       1.00000000       1.50000000       1.00000000
X       12.34422508      10.00000000      10.00000000       0.00000000       0.00000000       0.70710678       0.70710678       1.00000000       1.50000000       1.00000000
2
Lattice="20.0 0.0 0.0 0.0 20.0 0.0 0.0 0.0 20.0" Properties=species:S:1:pos:R:3:quaternions:R:4:c_diameter[1]:R:1:c_diameter[2]:R:1:c_diameter[3]:R:1 separation_distance=2.361850831547801 energy=-0.40304735786548956 pbc="F F F"
X       10.00000000      10.00000000      10.00000000       0.00000000       0.00000000       0.70710678       0.70710678       1.00000000       1.50000000       1.00000000
X       12.36185083      10.00000000      10.00000000       0.00000000       0.00000000       0.70710678       0.70710678       1.00000000       1.50000000       1.00000000
2
Lattice="20.0 0.0 0.0 0.0 20.0 0.0 0.0 0.0 20.0" Properties=species:S:1:pos:R:3:quaternions:R:4:c_diameter[1]:R:1:c_diameter[2]:R:1:c_diameter[3]:R:1 separation_distance=2.379476584022038 energy=-0.3790875488214051 pbc="F F F"
X       10.00000000      10.00000000      10.00000000       0.00000000       0.00000000       0.70710678       0.70710678       1.00000000       1.50000000       1.00000000
X       12.37947658      10.00000000      10.00000000       0.00000000       0.00000000       0.70710678       0.70710678       1.00000000       1.50000000       1.00000000
2
Lattice="20.0 0.0 0.0 0.0 20.0 0.0 0.0 0.0 20.0" Properties=species:S:1:pos:R:3:quaternions:R:4:c_diameter[1]:R:1:c_diameter[2]:R:1:c_diameter[3]:R:1 separation_distance=2.3971023364962756 energy=-0.3569705130273369 pbc="F F F"
X       10.00000000      10.00000000      10.00000000       0.00000000       0.00000000       0.70710678       0.70710678       1.00000000       1.50000000       1.00000000
X       12.39710234      10.00000000      10.00000000       0.00000000       0.00000000       0.70710678       0.70710678       1.00000000       1.50000000       1.00000000
2
Lattice="20.0 0.0 0.0 0.0 20.0 0.0 0.0 0.0 20.0" Properties=species:S:1:pos:R:3:quaternions:R:4:c_diameter[1]:R:1:c_diameter[2]:R:1:c_diameter[3]:R:1 separation_distance=2.414728088970513 energy=-0.3365259073254472 pbc="F F F"
X       10.00000000      10.00000000      10.00000000       0.00000000       0.00000000       0.70710678       0.70710678       1.00000000       1.50000000       1.00000000
X       12.41472809      10.00000000      10.00000000       0.00000000       0.00000000       0.70710678       0.70710678       1.00000000       1.50000000       1.00000000
2
Lattice="20.0 0.0 0.0 0.0 20.0 0.0 0.0 0.0 20.0" Properties=species:S:1:pos:R:3:quaternions:R:4:c_diameter[1]:R:1:c_diameter[2]:R:1:c_diameter[3]:R:1 separation_distance=2.4323538414447503 energy=-0.3176014632343596 pbc="F F F"
X       10.00000000      10.00000000      10.00000000       0.00000000       0.00000000       0.70710678       0.70710678       1.00000000       1.50000000       1.00000000
X       12.43235384      10.00000000      10.00000000       0.00000000       0.00000000       0.70710678       0.70710678       1.00000000       1.50000000       1.00000000
2
Lattice="20.0 0.0 0.0 0.0 20.0 0.0 0.0 0.0 20.0" Properties=species:S:1:pos:R:3:quaternions:R:4:c_diameter[1]:R:1:c_diameter[2]:R:1:c_diameter[3]:R:1 separation_distance=2.4499795939189877 energy=-0.30006085695972 pbc="F F F"
X       10.00000000      10.00000000      10.00000000       0.00000000       0.00000000       0.70710678       0.70710678       1.00000000       1.50000000       1.00000000
X       12.44997959      10.00000000      10.00000000       0.00000000       0.00000000       0.70710678       0.70710678       1.00000000       1.50000000       1.00000000
2
Lattice="20.0 0.0 0.0 0.0 20.0 0.0 0.0 0.0 20.0" Properties=species:S:1:pos:R:3:quaternions:R:4:c_diameter[1]:R:1:c_diameter[2]:R:1:c_diameter[3]:R:1 separation_distance=2.467605346393225 energy=-0.28378185055424054 pbc="F F F"
X       10.00000000      10.00000000      10.00000000       0.00000000       0.00000000       0.70710678       0.70710678       1.00000000       1.50000000       1.00000000
X       12.46760535      10.00000000      10.00000000       0.00000000       0.00000000       0.70710678       0.70710678       1.00000000       1.50000000       1.00000000
2
Lattice="20.0 0.0 0.0 0.0 20.0 0.0 0.0 0.0 20.0" Properties=species:S:1:pos:R:3:quaternions:R:4:c_diameter[1]:R:1:c_diameter[2]:R:1:c_diameter[3]:R:1 separation_distance=2.4852310988674624 energy=-0.26865466798014415 pbc="F F F"
X       10.00000000      10.00000000      10.00000000       0.00000000       0.00000000       0.70710678       0.70710678       1.00000000       1.50000000       1.00000000
X       12.48523110      10.00000000      10.00000000       0.00000000       0.00000000       0.70710678       0.70710678       1.00000000       1.50000000       1.00000000
2
Lattice="20.0 0.0 0.0 0.0 20.0 0.0 0.0 0.0 20.0" Properties=species:S:1:pos:R:3:quaternions:R:4:c_diameter[1]:R:1:c_diameter[2]:R:1:c_diameter[3]:R:1 separation_distance=2.5028568513416998 energy=-0.25458057472834966 pbc="F F F"
X       10.00000000      10.00000000      10.00000000       0.00000000       0.00000000       0.70710678       0.70710678       1.00000000       1.50000000       1.00000000
X       12.50285685      10.00000000      10.00000000       0.00000000       0.00000000       0.70710678       0.70710678       1.00000000       1.50000000       1.00000000
2
Lattice="20.0 0.0 0.0 0.0 20.0 0.0 0.0 0.0 20.0" Properties=species:S:1:pos:R:3:quaternions:R:4:c_diameter[1]:R:1:c_diameter[2]:R:1:c_diameter[3]:R:1 separation_distance=2.520482603815937 energy=-0.2414706339247202 pbc="F F F"
X       10.00000000      10.00000000      10.00000000       0.00000000       0.00000000       0.70710678       0.70710678       1.00000000       1.50000000       1.00000000
X       12.52048260      10.00000000      10.00000000       0.00000000       0.00000000       0.70710678       0.70710678       1.00000000       1.50000000       1.00000000
2
Lattice="20.0 0.0 0.0 0.0 20.0 0.0 0.0 0.0 20.0" Properties=species:S:1:pos:R:3:quaternions:R:4:c_diameter[1]:R:1:c_diameter[2]:R:1:c_diameter[3]:R:1 separation_distance=2.5381083562901745 energy=-0.2292446155649585 pbc="F F F"
X       10.00000000      10.00000000      10.00000000       0.00000000       0.00000000       0.70710678       0.70710678       1.00000000       1.50000000       1.00000000
X       12.53810836      10.00000000      10.00000000       0.00000000       0.00000000       0.70710678       0.70710678       1.00000000       1.50000000       1.00000000
2
Lattice="20.0 0.0 0.0 0.0 20.0 0.0 0.0 0.0 20.0" Properties=species:S:1:pos:R:3:quaternions:R:4:c_diameter[1]:R:1:c_diameter[2]:R:1:c_diameter[3]:R:1 separation_distance=2.5557341087644114 energy=-0.2178300387290513 pbc="F F F"
X       10.00000000      10.00000000      10.00000000       0.00000000       0.00000000       0.70710678       0.70710678       1.00000000       1.50000000       1.00000000
X       12.55573411      10.00000000      10.00000000       0.00000000       0.00000000       0.70710678       0.70710678       1.00000000       1.50000000       1.00000000
2
Lattice="20.0 0.0 0.0 0.0 20.0 0.0 0.0 0.0 20.0" Properties=species:S:1:pos:R:3:quaternions:R:4:c_diameter[1]:R:1:c_diameter[2]:R:1:c_diameter[3]:R:1 separation_distance=2.573359861238649 energy=-0.207161329394244 pbc="F F F"
X       10.00000000      10.00000000      10.00000000       0.00000000       0.00000000       0.70710678       0.70710678       1.00000000       1.50000000       1.00000000
X       12.57335986      10.00000000      10.00000000       0.00000000       0.00000000       0.70710678       0.70710678       1.00000000       1.50000000       1.00000000
2
Lattice="20.0 0.0 0.0 0.0 20.0 0.0 0.0 0.0 20.0" Properties=species:S:1:pos:R:3:quaternions:R:4:c_diameter[1]:R:1:c_diameter[2]:R:1:c_diameter[3]:R:1 separation_distance=2.590985613712886 energy=-0.1971790788488189 pbc="F F F"
X       10.00000000      10.00000000      10.00000000       0.00000000       0.00000000       0.70710678       0.70710678       1.00000000       1.50000000       1.00000000
X       12.59098561      10.00000000      10.00000000       0.00000000       0.00000000       0.70710678       0.70710678       1.00000000       1.50000000       1.00000000
2
Lattice="20.0 0.0 0.0 0.0 20.0 0.0 0.0 0.0 20.0" Properties=species:S:1:pos:R:3:quaternions:R:4:c_diameter[1]:R:1:c_diameter[2]:R:1:c_diameter[3]:R:1 separation_distance=2.6086113661871235 energy=-0.18782938975862382 pbc="F F F"
X       10.00000000      10.00000000      10.00000000       0.00000000       0.00000000       0.70710678       0.70710678       1.00000000       1.50000000       1.00000000
X       12.60861137      10.00000000      10.00000000       0.00000000       0.00000000       0.70710678       0.70710678       1.00000000       1.50000000       1.00000000
2
Lattice="20.0 0.0 0.0 0.0 20.0 0.0 0.0 0.0 20.0" Properties=species:S:1:pos:R:3:quaternions:R:4:c_diameter[1]:R:1:c_diameter[2]:R:1:c_diameter[3]:R:1 separation_distance=2.626237118661361 energy=-0.17906329869994458 pbc="F F F"
X       10.00000000      10.00000000      10.00000000       0.00000000       0.00000000       0.70710678       0.70710678       1.00000000       1.50000000       1.00000000
X       12.62623712      10.00000000      10.00000000       0.00000000       0.00000000       0.70710678       0.70710678       1.00000000       1.50000000       1.00000000
2
Lattice="20.0 0.0 0.0 0.0 20.0 0.0 0.0 0.0 20.0" Properties=species:S:1:pos:R:3:quaternions:R:4:c_diameter[1]:R:1:c_diameter[2]:R:1:c_diameter[3]:R:1 separation_distance=2.6438628711355983 energy=-0.1708362654860638 pbc="F F F"
X       10.00000000      10.00000000      10.00000000       0.00000000       0.00000000       0.70710678       0.70710678       1.00000000       1.50000000       1.00000000
X       12.64386287      10.00000000      10.00000000       0.00000000       0.00000000       0.70710678       0.70710678       1.00000000       1.50000000       1.00000000
2