2
Lattice="20.0 0.0 0.0 0.0 20.0 0.0 0.0 0.0 20.0" Properties=species:S:1:pos:R:3:quaternions:R:4:c_diameter\[1\]:R:1:c_diameter\[2\]:R:1:c_diameter\[3\]:R:1 separation_distance=2.01010101010101 energy=-3.431580095218601 pbc="F F F"
X       10.00000000      10.00000000      10.00000000       0.00000000       0.00000000       0.70710678       0.70710678       1.00000000       2.00000000       1.00000000
X       12.01010101      10.00000000      10.00000000       0.00000000       0.00000000       0.70710678       0.70710678       1.00000000       2.00000000       1.00000000
2
Lattice="20.0 0.0 0.0 0.0 20.0 0.0 0.0 0.0 20.0" Properties=species:S:1:pos:R:3:quaternions:R:4:c_diameter\[1\]:R:1:c_diameter\[2\]:R:1:c_diameter\[3\]:R:1 separation_distance=2.030405060708091 energy=-7.2959375495153225 pbc="F F F"
X       10.00000000      10.00000000      10.00000000       0.00000000       0.00000000       0.70710678       0.70710678       1.00000000       2.00000000       1.00000000
X       12.03040506      10.00000000      10.00000000       0.00000000       0.00000000       0.70710678       0.70710678       1.00000000       2.00000000       1.00000000
2
Lattice="20.0 0.0 0.0 0.0 20.0 0.0 0.0 0.0 20.0" Properties=species:S:1:pos:R:3:quaternions:R:4:c_diameter\[1\]:R:1:c_diameter\[2\]:R:1:c_diameter\[3\]:R:1 separation_distance=2.0507091113151716 energy=-8.775000062045848 pbc="F F F"
X       10.00000000      10.00000000      10.00000000       0.00000000       0.00000000       0.70710678       0.70710678       1.00000000       2.00000000       1.00000000
X       12.05070911      10.00000000      10.00000000       0.00000000       0.00000000       0.70710678       0.70710678       1.00000000       2.00000000       1.00000000
2
Lattice="20.0 0.0 0.0 0.0 20.0 0.0 0.0 0.0 20.0" Properties=species:S:1:pos:R:3:quaternions:R:4:c_diameter\[1\]:R:1:c_diameter\[2\]:R:1:c_diameter\[3\]:R:1 separation_distance=2.0710131619222527 energy=-9.029892736987028 pbc="F F F"
X       10.00000000      10.00000000      10.00000000       0.00000000       0.00000000       0.70710678       0.70710678       1.00000000       2.00000000       1.00000000
X       12.07101316      10.00000000      10.00000000       0.00000000       0.00000000       0.70710678       0.70710678       1.00000000       2.00000000       1.00000000
2
Lattice="20.0 0.0 0.0 0.0 20.0 0.0 0.0 0.0 20.0" Properties=species:S:1:pos:R:3:quaternions:R:4:c_diameter\[1\]:R:1:c_diameter\[2\]:R:1:c_diameter\[3\]:R:1 separation_distance=2.091317212529334 energy=-8.679161759699996 pbc="F F F"
X       10.00000000      10.00000000      10.00000000       0.00000000       0.00000000       0.70710678       0.70710678       1.00000000       2.00000000       1.00000000
X       12.09131721      10.00000000      10.00000000       0.00000000       0.00000000       0.70710678       0.70710678       1.00000000       2.00000000       1.00000000
2
Lattice="20.0 0.0 0.0 0.0 20.0 0.0 0.0 0.0 20.0" Properties=species:S:1:pos:R:3:quaternions:R:4:c_diameter\[1\]:R:1:c_diameter\[2\]:R:1:c_diameter\[3\]:R:1 separation_distance=2.1116212631364144 energy=-8.053498602015225 pbc="F F F"
X       10.00000000      10.00000000      10.00000000       0.00000000       0.00000000       0.70710678       0.70710678       1.00000000       2.00000000       1.00000000
X       12.11162126      10.00000000      10.00000000       0.00000000       0.00000000       0.70710678       0.70710678       1.00000000       2.00000000       1.00000000
2
Lattice="20.0 0.0 0.0 0.0 20.0 0.0 0.0 0.0 20.0" Properties=species:S:1:pos:R:3:quaternions:R:4:c_diameter\[1\]:R:1:c_diameter\[2\]:R:1:c_diameter\[3\]:R:1 separation_distance=2.1319253137434955 energy=-7.328573370158107 pbc="F F F"
X       10.00000000      10.00000000      10.00000000       0.00000000       0.00000000       0.70710678       0.70710678       1.00000000       2.00000000       1.00000000
X       12.13192531      10.00000000      10.00000000       0.00000000       0.00000000       0.70710678       0.70710678       1.00000000       2.00000000       1.00000000
2
Lattice="20.0 0.0 0.0 0.0 20.0 0.0 0.0 0.0 20.0" Properties=species:S:1:pos:R:3:quaternions:R:4:c_diameter\[1\]:R:1:c_diameter\[2\]:R:1:c_diameter\[3\]:R:1 separation_distance=2.152229364350576 energy=-6.5957105895240105 pbc="F F F"
X       10.00000000      10.00000000      10.00000000       0.00000000       0.00000000       0.70710678       0.70710678       1.00000000       2.00000000       1.00000000
X       12.15222936      10.00000000      10.00000000       0.00000000       0.00000000       0.70710678       0.70710678       1.00000000       2.00000000       1.00000000
2
Lattice="20.0 0.0 0.0 0.0 20.0 0.0 0.0 0.0 20.0" Properties=species:S:1:pos:R:3:quaternions:R:4:c_diameter\[1\]:R:1:c_diameter\[2\]:R:1:c_diameter\[3\]:R:1 separation_distance=2.172533414957657 energy=-5.900130213038761 pbc="F F F"
X       10.00000000      10.00000000      10.00000000       0.00000000       0.00000000       0.70710678       0.70710678       1.00000000       2.00000000       1.00000000
X       12.17253341      10.00000000      10.00000000       0.00000000       0.00000000       0.70710678       0.70710678       1.00000000       2.00000000       1.00000000
2
Lattice="20.0 0.0 0.0 0.0 20.0 0.0 0.0 0.0 20.0" Properties=species:S:1:pos:R:3:quaternions:R:4:c_diameter\[1\]:R:1:c_diameter\[2\]:R:1:c_diameter\[3\]:R:1 separation_distance=2.1928374655647382 energy=-5.261917336846365 pbc="F F F"
X       10.00000000      10.00000000      10.00000000       0.00000000       0.00000000       0.70710678       0.70710678       1.00000000       2.00000000       1.00000000
X       12.19283747      10.00000000      10.00000000       0.00000000       0.00000000       0.70710678       0.70710678       1.00000000       2.00000000       1.00000000
2
Lattice="20.0 0.0 0.0 0.0 20.0 0.0 0.0 0.0 20.0" Properties=species:S:1:pos:R:3:quaternions:R:4:c_diameter\[1\]:R:1:c_diameter\[2\]:R:1:c_diameter\[3\]:R:1 separation_distance=2.213141516171819 energy=-4.6876320092176895 pbc="F F F"
X       10.00000000      10.00000000      10.00000000       0.00000000       0.00000000       0.70710678       0.70710678       1.00000000       2.00000000       1.00000000
X       12.21314152      10.00000000      10.00000000       0.00000000       0.00000000       0.70710678       0.70710678       1.00000000       2.00000000       1.00000000
2
Lattice="20.0 0.0 0.0 0.0 20.0 0.0 0.0 0.0 20.0" Properties=species:S:1:pos:R:3:quaternions:R:4:c_diameter\[1\]:R:1:c_diameter\[2\]:R:1:c_diameter\[3\]:R:1 separation_distance=2.2334455667789 energy=-4.176770515637034 pbc="F F F"
X       10.00000000      10.00000000      10.00000000       0.00000000       0.00000000       0.70710678       0.70710678       1.00000000       2.00000000       1.00000000
X       12.23344557      10.00000000      10.00000000       0.00000000       0.00000000       0.70710678       0.70710678       1.00000000       2.00000000       1.00000000
2
Lattice="20.0 0.0 0.0 0.0 20.0 0.0 0.0 0.0 20.0" Properties=species:S:1:pos:R:3:quaternions:R:4:c_diameter\[1\]:R:1:c_diameter\[2\]:R:1:c_diameter\[3\]:R:1 separation_distance=2.253749617385981 energy=-3.7253602350019044 pbc="F F F"
X       10.00000000      10.00000000      10.00000000       0.00000000       0.00000000       0.70710678       0.70710678       1.00000000       2.00000000       1.00000000
X       12.25374962      10.00000000      10.00000000       0.00000000       0.00000000       0.70710678       0.70710678       1.00000000       2.00000000       1.00000000
2
Lattice="20.0 0.0 0.0 0.0 20.0 0.0 0.0 0.0 20.0" Properties=species:S:1:pos:R:3:quaternions:R:4:c_diameter\[1\]:R:1:c_diameter\[2\]:R:1:c_diameter\[3\]:R:1 separation_distance=2.2740536679930616 energy=-3.3279441473826137 pbc="F F F"
X       10.00000000      10.00000000      10.00000000       0.00000000       0.00000000       0.70710678       0.70710678       1.00000000       2.00000000       1.00000000
X       12.27405367      10.00000000      10.00000000       0.00000000       0.00000000       0.70710678       0.70710678       1.00000000       2.00000000       1.00000000
2
Lattice="20.0 0.0 0.0 0.0 20.0 0.0 0.0 0.0 20.0" Properties=species:S:1:pos:R:3:quaternions:R:4:c_diameter\[1\]:R:1:c_diameter\[2\]:R:1:c_diameter\[3\]:R:1 separation_distance=2.2943577186001427 energy=-2.9786556521694902 pbc="F F F"
X       10.00000000      10.00000000      10.00000000       0.00000000       0.00000000       0.70710678       0.70710678       1.00000000       2.00000000       1.00000000
X       12.29435772      10.00000000      10.00000000       0.00000000       0.00000000       0.70710678       0.70710678       1.00000000       2.00000000       1.00000000
2
Lattice="20.0 0.0 0.0 0.0 20.0 0.0 0.0 0.0 20.0" Properties=species:S:1:pos:R:3:quaternions:R:4:c_diameter\[1\]:R:1:c_diameter\[2\]:R:1:c_diameter\[3\]:R:1 separation_distance=2.3146617692072233 energy=-2.671778873123689 pbc="F F F"
X       10.00000000      10.00000000      10.00000000       0.00000000       0.00000000       0.70710678       0.70710678       1.00000000       2.00000000       1.00000000
X       12.31466177      10.00000000      10.00000000       0.00000000       0.00000000       0.70710678       0.70710678       1.00000000       2.00000000       1.00000000
2
Lattice="20.0 0.0 0.0 0.0 20.0 0.0 0.0 0.0 20.0" Properties=species:S:1:pos:R:3:quaternions:R:4:c_diameter\[1\]:R:1:c_diameter\[2\]:R:1:c_diameter\[3\]:R:1 separation_distance=2.3349658198143044 energy=-2.4020192399188476 pbc="F F F"
X       10.00000000      10.00000000      10.00000000       0.00000000       0.00000000       0.70710678       0.70710678       1.00000000       2.00000000       1.00000000
X       12.33496582      10.00000000      10.00000000       0.00000000       0.00000000       0.70710678       0.70710678       1.00000000       2.00000000       1.00000000
2
Lattice="20.0 0.0 0.0 0.0 20.0 0.0 0.0 0.0 20.0" Properties=species:S:1:pos:R:3:quaternions:R:4:c_diameter\[1\]:R:1:c_diameter\[2\]:R:1:c_diameter\[3\]:R:1 separation_distance=2.3552698704213855 energy=-2.1646129396180442 pbc="F F F"
X       10.00000000      10.00000000      10.00000000       0.00000000       0.00000000       0.70710678       0.70710678       1.00000000       2.00000000       1.00000000
X       12.35526987      10.00000000      10.00000000       0.00000000       0.00000000       0.70710678       0.70710678       1.00000000       2.00000000       1.00000000
2
Lattice="20.0 0.0 0.0 0.0 20.0 0.0 0.0 0.0 20.0" Properties=species:S:1:pos:R:3:quaternions:R:4:c_diameter\[1\]:R:1:c_diameter\[2\]:R:1:c_diameter\[3\]:R:1 separation_distance=2.375573921028466 energy=-1.9553489658512164 pbc="F F F"
X       10.00000000      10.00000000      10.00000000       0.00000000       0.00000000       0.70710678       0.70710678       1.00000000       2.00000000       1.00000000
X       12.37557392      10.00000000      10.00000000       0.00000000       0.00000000       0.70710678       0.70710678       1.00000000       2.00000000       1.00000000
2
Lattice="20.0 0.0 0.0 0.0 20.0 0.0 0.0 0.0 20.0" Properties=species:S:1:pos:R:3:quaternions:R:4:c_diameter\[1\]:R:1:c_diameter\[2\]:R:1:c_diameter\[3\]:R:1 separation_distance=2.395877971635547 energy=-1.7705459470831455 pbc="F F F"
X       10.00000000      10.00000000      10.00000000       0.00000000       0.00000000       0.70710678       0.70710678       1.00000000       2.00000000       1.00000000
X       12.39587797      10.00000000      10.00000000       0.00000000       0.00000000       0.70710678       0.70710678       1.00000000       2.00000000       1.00000000
2
Lattice="20.0 0.0 0.0 0.0 20.0 0.0 0.0 0.0 20.0" Properties=species:S:1:pos:R:3:quaternions:R:4:c_diameter\[1\]:R:1:c_diameter\[2\]:R:1:c_diameter\[3\]:R:1 separation_distance=2.4161820222426282 energy=-1.607007693259726 pbc="F F F"
X       10.00000000      10.00000000      10.00000000       0.00000000       0.00000000       0.70710678       0.70710678       1.00000000       2.00000000       1.00000000
X       12.41618202      10.00000000      10.00000000       0.00000000       0.00000000       0.70710678       0.70710678       1.00000000       2.00000000       1.00000000
2
Lattice="20.0 0.0 0.0 0.0 20.0 0.0 0.0 0.0 20.0" Properties=species:S:1:pos:R:3:quaternions:R:4:c_diameter\[1\]:R:1:c_diameter\[2\]:R:1:c_diameter\[3\]:R:1 separation_distance=2.436486072849709 energy=-1.4619708205816555 pbc="F F F"
X       10.00000000      10.00000000      10.00000000       0.00000000       0.00000000       0.70710678       0.70710678       1.00000000       2.00000000       1.00000000
X       12.43648607      10.00000000      10.00000000       0.00000000       0.00000000       0.70710678       0.70710678       1.00000000       2.00000000       1.00000000
2
Lattice="20.0 0.0 0.0 0.0 20.0 0.0 0.0 0.0 20.0" Properties=species:S:1:pos:R:3:quaternions:R:4:c_diameter\[1\]:R:1:c_diameter\[2\]:R:1:c_diameter\[3\]:R:1 separation_distance=2.45679012345679 energy=-1.3330516818368565 pbc="F F F"
X       10.00000000      10.00000000      10.00000000       0.00000000       0.00000000       0.70710678       0.70710678       1.00000000       2.00000000       1.00000000
X       12.45679012      10.00000000      10.00000000       0.00000000       0.00000000       0.70710678       0.70710678       1.00000000       2.00000000       1.00000000
2
Lattice="20.0 0.0 0.0 0.0 20.0 0.0 0.0 0.0 20.0" Properties=species:S:1:pos:R:3:quaternions:R:4:c_diameter\[1\]:R:1:c_diameter\[2\]:R:1:c_diameter\[3\]:R:1 separation_distance=2.477094174063871 energy=-1.2181962932056416 pbc="F F F"
X       10.00000000      10.00000000      10.00000000       0.00000000       0.00000000       0.70710678       0.70710678       1.00000000       2.00000000       1.00000000
X       12.47709417      10.00000000      10.00000000       0.00000000       0.00000000       0.70710678       0.70710678       1.00000000       2.00000000       1.00000000
2
Lattice="20.0 0.0 0.0 0.0 20.0 0.0 0.0 0.0 20.0" Properties=species:S:1:pos:R:3:quaternions:R:4:c_diameter\[1\]:R:1:c_diameter\[2\]:R:1:c_diameter\[3\]:R:1 separation_distance=2.4973982246709516 energy=-1.1156349322096637 pbc="F F F"
X       10.00000000      10.00000000      10.00000000       0.00000000       0.00000000       0.70710678       0.70710678       1.00000000       2.00000000       1.00000000
X       12.49739822      10.00000000      10.00000000       0.00000000       0.00000000       0.70710678       0.70710678       1.00000000       2.00000000       1.00000000
2
Lattice="20.0 0.0 0.0 0.0 20.0 0.0 0.0 0.0 20.0" Properties=species:S:1:pos:R:3:quaternions:R:4:c_diameter\[1\]:R:1:c_diameter\[2\]:R:1:c_diameter\[3\]:R:1 separation_distance=2.5177022752780327 energy=-1.023841956126622 pbc="F F F"
X       10.00000000      10.00000000      10.00000000       0.00000000       0.00000000       0.70710678       0.70710678       1.00000000       2.00000000       1.00000000
X       12.51770228      10.00000000      10.00000000       0.00000000       0.00000000       0.70710678       0.70710678       1.00000000       2.00000000       1.00000000
2
Lattice="20.0 0.0 0.0 0.0 20.0 0.0 0.0 0.0 20.0" Properties=species:S:1:pos:R:3:quaternions:R:4:c_diameter\[1\]:R:1:c_diameter\[2\]:R:1:c_diameter\[3\]:R:1 separation_distance=2.5380063258851138 energy=-0.9415007853584227 pbc="F F F"
X       10.00000000      10.00000000      10.00000000       0.00000000       0.00000000       0.70710678       0.70710678       1.00000000       2.00000000       1.00000000
X       12.53800633      10.00000000      10.00000000       0.00000000       0.00000000       0.70710678       0.70710678       1.00000000       2.00000000       1.00000000
2
Lattice="20.0 0.0 0.0 0.0 20.0 0.0 0.0 0.0 20.0" Properties=species:S:1:pos:R:3:quaternions:R:4:c_diameter\[1\]:R:1:c_diameter\[2\]:R:1:c_diameter\[3\]:R:1 separation_distance=2.5583103764921944 energy=-0.8674736931525591 pbc="F F F"
X       10.00000000      10.00000000      10.00000000       0.00000000       0.00000000       0.70710678       0.70710678       1.00000000       2.00000000       1.00000000
X       12.55831038      10.00000000      10.00000000       0.00000000       0.00000000       0.70710678       0.70710678       1.00000000       2.00000000       1.00000000
2
Lattice="20.0 0.0 0.0 0.0 20.0 0.0 0.0 0.0 20.0" Properties=species:S:1:pos:R:3:quaternions:R:4:c_diameter\[1\]:R:1:c_diameter\[2\]:R:1:c_diameter\[3\]:R:1 separation_distance=2.5786144270992755 energy=-0.8007759123376826 pbc="F F F"
X       10.00000000      10.00000000      10.00000000       0.00000000       0.00000000       0.70710678       0.70710678       1.00000000       2.00000000       1.00000000
X       12.57861443      10.00000000      10.00000000       0.00000000       0.00000000       0.70710678       0.70710678       1.00000000       2.00000000       1.00000000
2
Lattice="20.0 0.0 0.0 0.0 20.0 0.0 0.0 0.0 20.0" Properties=species:S:1:pos:R:3:quaternions:R:4:c_diameter\[1\]:R:1:c_diameter\[2\]:R:1:c_diameter\[3\]:R:1 separation_distance=2.598918477706356 energy=-0.7405535349210496 pbc="F F F"
X       10.00000000      10.00000000      10.00000000       0.00000000       0.00000000       0.70710678       0.70710678       1.00000000       2.00000000       1.00000000
X       12.59891848      10.00000000      10.00000000       0.00000000       0.00000000       0.70710678       0.70710678       1.00000000       2.00000000       1.00000000
2
Lattice="20.0 0.0 0.0 0.0 20.0 0.0 0.0 0.0 20.0" Properties=species:S:1:pos:R:3:quaternions:R:4:c_diameter\[1\]:R:1:c_diameter\[2\]:R:1:c_diameter\[3\]:R:1 separation_distance=2.619222528313437 energy=-0.6860646966073268 pbc="F F F"
X       10.00000000      10.00000000      10.00000000       0.00000000       0.00000000       0.70710678       0.70710678       1.00000000       2.00000000       1.00000000
X       12.61922253      10.00000000      10.00000000       0.00000000       0.00000000       0.70710678       0.70710678       1.00000000       2.00000000       1.00000000
2
Lattice="20.0 0.0 0.0 0.0 20.0 0.0 0.0 0.0 20.0" Properties=species:S:1:pos:R:3:quaternions:R:4:c_diameter\[1\]:R:1:c_diameter\[2\]:R:1:c_diameter\[3\]:R:1 separation_distance=2.639526578920518 energy=-0.6366635794300983 pbc="F F F"
X       10.00000000      10.00000000      10.00000000       0.00000000       0.00000000       0.70710678       0.70710678       1.00000000       2.00000000       1.00000000
X       12.63952658      10.00000000      10.00000000       0.00000000       0.00000000       0.70710678       0.70710678       1.00000000       2.00000000       1.00000000
2
Lattice="20.0 0.0 0.0 0.0 20.0 0.0 0.0 0.0 20.0" Properties=species:S:1:pos:R:3:quaternions:R:4:c_diameter\[1\]:R:1:c_diameter\[2\]:R:1:c_diameter\[3\]:R:1 separation_distance=2.659830629527599 energy=-0.5917868168362836 pbc="F F F"
X       10.00000000      10.00000000      10.00000000       0.00000000       0.00000000       0.70710678       0.70710678       1.00000000       2.00000000       1.00000000
X       12.65983063      10.00000000      10.00000000       0.00000000       0.00000000       0.70710678       0.70710678       1.00000000       2.00000000       1.00000000
2
Lattice="20.0 0.0 0.0 0.0 20.0 0.0 0.0 0.0 20.0" Properties=species:S:1:pos:R:3:quaternions:R:4:c_diameter\[1\]:R:1:c_diameter\[2\]:R:1:c_diameter\[3\]:R:1 separation_distance=2.68013468013468 energy=-0.5509419384814428 pbc="F F F"
X       10.00000000      10.00000000      10.00000000       0.00000000       0.00000000       0.70710678       0.70710678       1.00000000       2.00000000       1.00000000
X       12.68013468      10.00000000      10.00000000       0.00000000       0.00000000       0.70710678       0.70710678       1.00000000       2.00000000       1.00000000
2
Lattice="20.0 0.0 0.0 0.0 20.0 0.0 0.0 0.0 20.0" Properties=species:S:1:pos:R:3:quaternions:R:4:c_diameter\[1\]:R:1:c_diameter\[2\]:R:1:c_diameter\[3\]:R:1 separation_distance=2.7004387307417606 energy=-0.5136975423557079 pbc="F F F"
X       10.00000000      10.00000000      10.00000000       0.00000000       0.00000000       0.70710678       0.70710678       1.00000000       2.00000000       1.00000000
X       12.70043873      10.00000000      10.00000000       0.00000000       0.00000000       0.70710678       0.70710678       1.00000000       2.00000000       1.00000000
2
Lattice="20.0 0.0 0.0 0.0 20.0 0.0 0.0 0.0 20.0" Properties=species:S:1:pos:R:3:quaternions:R:4:c_diameter\[1\]:R:1:c_diameter\[2\]:R:1:c_diameter\[3\]:R:1 separation_distance=2.7207427813488416 energy=-0.4796749276250409 pbc="F F F"
X       10.00000000      10.00000000      10.00000000       0.00000000       0.00000000       0.70710678       0.70710678       1.00000000       2.00000000       1.00000000
X       12.72074278      10.00000000      10.00000000       0.00000000       0.00000000       0.70710678       0.70710678       1.00000000       2.00000000       1.00000000
2
Lattice="20.0 0.0 0.0 0.0 20.0 0.0 0.0 0.0 20.0" Properties=species:S:1:pos:R:3:quaternions:R:4:c_diameter\[1\]:R:1:c_diameter\[2\]:R:1:c_diameter\[3\]:R:1 separation_distance=2.7410468319559227 energy=-0.4485409619992294 pbc="F F F"
X       10.00000000      10.00000000      10.00000000       0.00000000       0.00000000       0.70710678       0.70710678       1.00000000       2.00000000       1.00000000
X       12.74104683      10.00000000      10.00000000       0.00000000       0.00000000       0.70710678       0.70710678       1.00000000       2.00000000       1.00000000
2
Lattice="20.0 0.0 0.0 0.0 20.0 0.0 0.0 0.0 20.0" Properties=species:S:1:pos:R:3:quaternions:R:4:c_diameter\[1\]:R:1:c_diameter\[2\]:R:1:c_diameter\[3\]:R:1 separation_distance=2.7613508825630033 energy=-0.42000199249925485 pbc="F F F"
X       10.00000000      10.00000000      10.00000000       0.00000000       0.00000000       0.70710678       0.70710678       1.00000000       2.00000000       1.00000000
X       12.76135088      10.00000000      10.00000000       0.00000000       0.00000000       0.70710678       0.70710678       1.00000000       2.00000000       1.00000000
2
Lattice="20.0 0.0 0.0 0.0 20.0 0.0 0.0 0.0 20.0" Properties=species:S:1:pos:R:3:quaternions:R:4:c_diameter\[1\]:R:1:c_diameter\[2\]:R:1:c_diameter\[3\]:R:1 separation_distance=2.7816549331700844 energy=-0.393798638531793 pbc="F F F"
X       10.00000000      10.00000000      10.00000000       0.00000000       0.00000000       0.70710678       0.70710678       1.00000000       2.00000000       1.00000000
X       12.78165493      10.00000000      10.00000000       0.00000000       0.00000000       0.70710678       0.70710678       1.00000000       2.00000000       1.00000000
2
Lattice="20.0 0.0 0.0 0.0 20.0 0.0 0.0 0.0 20.0" Properties=species:S:1:pos:R:3:quaternions:R:4:c_diameter\[1\]:R:1:c_diameter\[2\]:R:1:c_diameter\[3\]:R:1 separation_distance=2.8019589837771655 energy=-0.3697013316927792 pbc="F F F"
X       10.00000000      10.00000000      10.00000000       0.00000000       0.00000000       0.70710678       0.70710678       1.00000000       2.00000000       1.00000000
X       12.80195898      10.00000000      10.00000000       0.00000000       0.00000000       0.70710678       0.70710678       1.00000000       2.00000000       1.00000000
2
Lattice="20.0 0.0 0.0 0.0 20.0 0.0 0.0 0.0 20.0" Properties=species:S:1:pos:R:3:quaternions:R:4:c_diameter\[1\]:R:1:c_diameter\[2\]:R:1:c_diameter\[3\]:R:1 separation_distance=2.822263034384246 energy=-0.34750648827166103 pbc="F F F"
X       10.00000000      10.00000000      10.00000000       0.00000000       0.00000000       0.70710678       0.70710678       1.00000000       2.00000000       1.00000000
X       12.82226303      10.00000000      10.00000000       0.00000000       0.00000000       0.70710678       0.70710678       1.00000000       2.00000000       1.00000000
2
Lattice="20.0 0.0 0.0 0.0 20.0 0.0 0.0 0.0 20.0" Properties=species:S:1:pos:R:3:quaternions:R:4:c_diameter\[1\]:R:1:c_diameter\[2\]:R:1:c_diameter\[3\]:R:1 separation_distance=2.842567084991327 energy=-0.3270332185591547 pbc="F F F"
X       10.00000000      10.00000000      10.00000000       0.00000000       0.00000000       0.70710678       0.70710678       1.00000000       2.00000000       1.00000000
X       12.84256708      10.00000000      10.00000000       0.00000000       0.00000000       0.70710678       0.70710678       1.00000000       2.00000000       1.00000000
2
Lattice="20.0 0.0 0.0 0.0 20.0 0.0 0.0 0.0 20.0" Properties=species:S:1:pos:R:3:quaternions:R:4:c_diameter\[1\]:R:1:c_diameter\[2\]:R:1:c_diameter\[3\]:R:1 separation_distance=2.8628711355984082 energy=-0.3081204922782326 pbc="F F F"
X       10.00000000      10.00000000      10.00000000       0.00000000       0.00000000       0.70710678       0.70710678       1.00000000       2.00000000       1.00000000
X       12.86287114      10.00000000      10.00000000       0.00000000       0.00000000       0.70710678       0.70710678       1.00000000       2.00000000       1.00000000
2
Lattice="20.0 0.0 0.0 0.0 20.0 0.0 0.0 0.0 20.0" Properties=species:S:1:pos:R:3:quaternions:R:4:c_diameter\[1\]:R:1:c_diameter\[2\]:R:1:c_diameter\[3\]:R:1 separation_distance=2.883175186205489 energy=-0.2906246922101666 pbc="F F F"
X       10.00000000      10.00000000      10.00000000       0.00000000       0.00000000       0.70710678       0.70710678       1.00000000       2.00000000       1.00000000
X       12.88317519      10.00000000      10.00000000       0.00000000       0.00000000       0.70710678       0.70710678       1.00000000       2.00000000       1.00000000
2
Lattice="20.0 0.0 0.0 0.0 20.0 0.0 0.0 0.0 20.0" Properties=species:S:1:pos:R:3:quaternions:R:4:c_diameter\[1\]:R:1:c_diameter\[2\]:R:1:c_diameter\[3\]:R:1 separation_distance=2.90347923681257 energy=-0.27441749876618204 pbc="F F F"
X       10.00000000      10.00000000      10.00000000       0.00000000       0.00000000       0.70710678       0.70710678       1.00000000       2.00000000       1.00000000
X       12.90347924      10.00000000      10.00000000       0.00000000       0.00000000       0.70710678       0.70710678       1.00000000       2.00000000       1.00000000
2
Lattice="20.0 0.0 0.0 0.0 20.0 0.0 0.0 0.0 20.0" Properties=species:S:1:pos:R:3:quaternions:R:4:c_diameter\[1\]:R:1:c_diameter\[2\]:R:1:c_diameter\[3\]:R:1 separation_distance=2.923783287419651 energy=-0.25938405719638935 pbc="F F F"
X       10.00000000      10.00000000      10.00000000       0.00000000       0.00000000       0.70710678       0.70710678       1.00000000       2.00000000       1.00000000
X       12.92378329      10.00000000      10.00000000       0.00000000       0.00000000       0.70710678       0.70710678       1.00000000       2.00000000       1.00000000
2
Lattice="20.0 0.0 0.0 0.0 20.0 0.0 0.0 0.0 20.0" Properties=species:S:1:pos:R:3:quaternions:R:4:c_diameter\[1\]:R:1:c_diameter\[2\]:R:1:c_diameter\[3\]:R:1 separation_distance=2.9440873380267316 energy=-0.24542138661606694 pbc="F F F"
X       10.00000000      10.00000000      10.00000000       0.00000000       0.00000000       0.70710678       0.70710678       1.00000000       2.00000000       1.00000000
X       12.94408734      10.00000000      10.00000000       0.00000000       0.00000000       0.70710678       0.70710678       1.00000000       2.00000000       1.00000000
2
Lattice="20.0 0.0 0.0 0.0 20.0 0.0 0.0 0.0 20.0" Properties=species:S:1:pos:R:3:quaternions:R:4:c_diameter\[1\]:R:1:c_diameter\[2\]:R:1:c_diameter\[3\]:R:1 separation_distance=2.9643913886338127 energy=-0.23243699630511125 pbc="F F F"
X       10.00000000      10.00000000      10.00000000       0.00000000       0.00000000       0.70710678       0.70710678       1.00000000       2.00000000       1.00000000
X       12.96439139      10.00000000      10.00000000       0.00000000       0.00000000       0.70710678       0.70710678       1.00000000       2.00000000       1.00000000
2
Lattice="20.0 0.0 0.0 0.0 20.0 0.0 0.0 0.0 20.0" Properties=species:S:1:pos:R:3:quaternions:R:4:c_diameter\[1\]:R:1:c_diameter\[2\]:R:1:c_diameter\[3\]:R:1 separation_distance=2.9846954392408938 energy=-0.22034768000067306 pbc="F F F"
X       10.00000000      10.00000000      10.00000000       0.00000000       0.00000000       0.70710678       0.70710678       1.00000000       2.00000000       1.00000000
X       12.98469544      10.00000000      10.00000000       0.00000000       0.00000000       0.70710678       0.70710678       1.00000000       2.00000000       1.00000000
2
Lattice="20.0 0.0 0.0 0.0 20.0 0.0 0.0 0.0 20.0" Properties=species:S:1:pos:R:3:quaternions:R:4:c_diameter\[1\]:R:1:c_diameter\[2\]:R:1:c_diameter\[3\]:R:1 separation_distance=3.0049994898479744 energy=-0.20907846332361224 pbc="F F F"
X       10.00000000      10.00000000      10.00000000       0.00000000       0.00000000       0.70710678       0.70710678       1.00000000       2.00000000       1.00000000
X       13.00499949      10.00000000      10.00000000       0.00000000       0.00000000       0.70710678       0.70710678       1.00000000       2.00000000       1.00000000
2
Lattice="20.0 0.0 0.0 0.0 20.0 0.0 0.0 0.0 20.0" Properties=species:S:1:pos:R:3:quaternions:R:4:c_diameter\[1\]:R:1:c_diameter\[2\]:R:1:c_diameter\[3\]:R:1 separation_distance=3.025303540455055 energy=-0.19856168319637305 pbc="F F F"
X       10.00000000      10.00000000      10.00000000       0.00000000       0.00000000       0.70710678       0.70710678       1.00000000       2.00000000       1.00000000
X       13.02530354      10.00000000      10.00000000       0.00000000       0.00000000       0.70710678       0.70710678       1.00000000       2.00000000       1.00000000
2
Lattice="20.0 0.0 0.0 0.0 20.0 0.0 0.0 0.0 20.0" Properties=species:S:1:pos:R:3:quaternions:R:4:c_diameter\[1\]:R:1:c_diameter\[2\]:R:1:c_diameter\[3\]:R:1 separation_distance=3.0456075910621365 energy=-0.18873618123956576 pbc="F F F"