2
Lattice="20.0 0.0 0.0 0.0 20.0 0.0 0.0 0.0 20.0" Properties=species:S:1:pos:R:3:quaternions:R:4:c_diameter[1]:R:1:c_diameter[2]:R:1:c_diameter[3]:R:1 energy=-0.025114742285340688 pbc="F F F"
X       10.00000000      10.00000000      10.00000000       0.67297266       0.47334367       0.43885655      -0.36119039       1.00000000       1.50000000       1.00000000
X       11.01140516      11.98559593      11.98667951      -0.42453308      -0.02107780       0.70713660       0.56505329       1.00000000       1.50000000       1.00000000
2
Lattice="20.0 0.0 0.0 0.0 20.0 0.0 0.0 0.0 20.0" Properties=species:S:1:pos:R:3:quaternions:R:4:c_diameter[1]:R:1:c_diameter[2]:R:1:c_diameter[3]:R:1 energy=-0.09344393537281255 pbc="F F F"
X       10.00000000      10.00000000      10.00000000       0.89712150      -0.30047003       0.31881477       0.05699050       1.00000000       1.50000000       1.00000000
X       11.07107280      11.48493716      11.53417040       0.60182631       0.55196111       0.57706412      -0.01187534       1.00000000       1.50000000       1.00000000
2
Lattice="20.0 0.0 0.0 0.0 20.0 0.0 0.0 0.0 20.0" Properties=species:S:1:pos:R:3:quaternions:R:4:c_diameter[1]:R:1:c_diameter[2]:R:1:c_diameter[3]:R:1 energy=-0.03262421403016705 pbc="F F F"
X       10.00000000      10.00000000      10.00000000       0.42266803       0.43507433       0.77918793      -0.15788680       1.00000000       1.50000000       1.00000000
X       11.54956520      11.62272521      11.61081811      -0.17855437       0.91373796      -0.29991335      -0.20797419       1.00000000       1.50000000       1.00000000
2
Lattice="20.0 0.0 0.0 0.0 20.0 0.0 0.0 0.0 20.0" Properties=species:S:1:pos:R:3:quaternions:R:4:c_diameter[1]:R:1:c_diameter[2]:R:1:c_diameter[3]:R:1 energy=-0.018227054351544057 pbc="F F F"
X       10.00000000      10.00000000      10.00000000       0.65227606       0.19361742       0.64177898      -0.35379087       1.00000000       1.50000000       1.00000000
X       11.70839129      11.74682199      11.72470167      -0.52325680      -0.39321781       0.75418753       0.05275640       1.00000000       1.50000000       1.00000000
2
Lattice="20.0 0.0 0.0 0.0 20.0 0.0 0.0 0.0 20.0" Properties=species:S:1:pos:R:3:quaternions:R:4:c_diameter[1]:R:1:c_diameter[2]:R:1:c_diameter[3]:R:1 energy=-0.024419958900033057 pbc="F F F"
X       10.00000000      10.00000000      10.00000000      -0.03910121      -0.34221136       0.68899128       0.63769389       1.00000000       1.50000000       1.00000000
X       11.49838966      11.60262014      11.80658653      -0.01209839      -0.44929978       0.73619422       0.50596581       1.00000000       1.50000000       1.00000000
2
Lattice="20.0 0.0 0.0 0.0 20.0 0.0 0.0 0.0 20.0" Properties=species:S:1:pos:R:3:quaternions:R:4:c_diameter[1]:R:1:c_diameter[2]:R:1:c_diameter[3]:R:1 energy=-0.04379746018451007 pbc="F F F"
X       10.00000000      10.00000000      10.00000000       0.20861991       0.80977876       0.52092386      -0.17138966       1.00000000       1.50000000       1.00000000
X       11.19508788      11.60641710      11.45128809      -0.41331126      -0.24909165       0.82835015      -0.28454030       1.00000000       1.50000000       1.00000000
2
Lattice="20.0 0.0 0.0 0.0 20.0 0.0 0.0 0.0 20.0" Properties=species:S:1:pos:R:3:quaternions:R:4:c_diameter[1]:R:1:c_diameter[2]:R:1:c_diameter[3]:R:1 energy=-0.13489016853991484 pbc="F F F"
X       10.00000000      10.00000000      10.00000000       0.93160153      -0.11703715       0.34323446       0.02471850       1.00000000       1.50000000       1.00000000
X       11.43511016      11.12801841      11.53793667       0.17709783       0.90264854      -0.33049184      -0.21127498       1.00000000       1.50000000       1.00000000
2
Lattice="20.0 0.0 0.0 0.0 20.0 0.0 0.0 0.0 20.0" Properties=species:S:1:pos:R:3:quaternions:R:4:c_diameter[1]:R:1:c_diameter[2]:R:1:c_diameter[3]:R:1 energy=-0.040127411945935464 pbc="F F F"
X       10.00000000      10.00000000      10.00000000      -0.55493541       0.68386277       0.44794635       0.15402102       1.00000000       1.50000000       1.00000000
X       11.42818831      11.85282167      11.64977422       0.60978512      -0.19346974       0.76746113       0.04165322       1.00000000       1.50000000       1.00000000
2
Lattice="20.0 0.0 0.0 0.0 20.0 0.0 0.0 0.0 20.0" Properties=species:S:1:pos:R:3:quaternions:R:4:c_diameter[1]:R:1:c_diameter[2]:R:1:c_diameter[3]:R:1 energy=-0.15319907492982865 pbc="F F F"
X       10.00000000      10.00000000      10.00000000       0.62609046      -0.43305526      -0.51498619       0.39403439       1.00000000       1.50000000       1.00000000
X       11.10680822      11.35606625      11.49170461       0.00124738      -0.43456089      -0.13695848       0.89016720       1.00000000       1.50000000       1.00000000
2
Lattice="20.0 0.0 0.0 0.0 20.0 0.0 0.0 0.0 20.0" Properties=species:S:1:pos:R:3:quaternions:R:4:c_diameter[1]:R:1:c_diameter[2]:R:1:c_diameter[3]:R:1 energy=-0.09103938054727417 pbc="F F F"
X       10.00000000      10.00000000      10.00000000      -0.04758832      -0.42743977       0.50467739       0.74855282       1.00000000       1.50000000       1.00000000
X       11.23606278      11.47107716      11.14380987       0.59756286      -0.22010973      -0.18712680       0.74796651       1.00000000       1.50000000       1.00000000
2
Lattice="20.0 0.0 0.0 0.0 20.0 0.0 0.0 0.0 20.0" Properties=species:S:1:pos:R:3:quaternions:R:4:c_diameter[1]:R:1:c_diameter[2]:R:1:c_diameter[3]:R:1 energy=-0.06383840999562332 pbc="F F F"
X       10.00000000      10.00000000      10.00000000       0.72915293      -0.55253074       0.38375240       0.12561801       1.00000000       1.50000000       1.00000000
X       11.03775393      11.81703748      11.28065966       0.60162639       0.03829606      -0.00481561       0.79784454       1.00000000       1.50000000       1.00000000
2
Lattice="20.0 0.0 0.0 0.0 20.0 0.0 0.0 0.0 20.0" Properties=species:S:1:pos:R:3:quaternions:R:4:c_diameter[1]:R:1:c_diameter[2]:R:1:c_diameter[3]:R:1 energy=-0.01591117693876749 pbc="F F F"
X       10.00000000      10.00000000      10.00000000      -0.03365918       0.85906133      -0.22551618      -0.45828282       1.00000000       1.50000000       1.00000000
X       11.94590168      11.99514304      11.62762027       0.87511291       0.41213608      -0.24076305      -0.07971451       1.00000000       1.50000000       1.00000000
2
Lattice="20.0 0.0 0.0 0.0 20.0 0.0 0.0 0.0 20.0" Properties=species:S:1:pos:R:3:quaternions:R:4:c_diameter[1]:R:1:c_diameter[2]:R:1:c_diameter[3]:R:1 energy=-0.1350880596780669 pbc="F F F"
X       10.00000000      10.00000000      10.00000000      -0.45933678       0.02029146       0.56178954       0.68774304       1.00000000       1.50000000       1.00000000
X       11.18127639      11.12651271      11.41481791       0.24689769       0.42196551      -0.14828708       0.85964968       1.00000000       1.50000000       1.00000000
2
Lattice="20.0 0.0 0.0 0.0 20.0 0.0 0.0 0.0 20.0" Properties=species:S:1:pos:R:3:quaternions:R:4:c_diameter[1]:R:1:c_diameter[2]:R:1:c_diameter[3]:R:1 energy=-0.03428492521725089 pbc="F F F"
X       10.00000000      10.00000000      10.00000000       0.32589727       0.48025208       0.75714554      -0.29979917       1.00000000       1.50000000       1.00000000
X       11.35576518      11.50788627      11.95886280       0.38366778       0.42701260       0.72358350       0.38325734       1.00000000       1.50000000       1.00000000
2
Lattice="20.0 0.0 0.0 0.0 20.0 0.0 0.0 0.0 20.0" Properties=species:S:1:pos:R:3:quaternions:R:4:c_diameter[1]:R:1:c_diameter[2]:R:1:c_diameter[3]:R:1 energy=-0.04601563839162779 pbc="F F F"
X       10.00000000      10.00000000      10.00000000       0.66529313      -0.16820618       0.60149265      -0.40902118       1.00000000       1.50000000       1.00000000
X       11.78549066      11.26249452      11.25505386       0.19182051       0.31261923       0.18626817       0.91147039       1.00000000       1.50000000       1.00000000
2
Lattice="20.0 0.0 0.0 0.0 20.0 0.0 0.0 0.0 20.0" Properties=species:S:1:pos:R:3:quaternions:R:4:c_diameter[1]:R:1:c_diameter[2]:R:1:c_diameter[3]:R:1 energy=-0.09842250650726644 pbc="F F F"
X       10.00000000      10.00000000      10.00000000      -0.37478306       0.22876436       0.86495637       0.24301236       1.00000000       1.50000000       1.00000000
X       11.11857598      11.98427209      11.06396539       0.44183043       0.30960975      -0.21235856       0.81475856       1.00000000       1.50000000       1.00000000
2
Lattice="20.0 0.0 0.0 0.0 20.0 0.0 0.0 0.0 20.0" Properties=species:S:1:pos:R:3:quaternions:R:4:c_diameter[1]:R:1:c_diameter[2]:R:1:c_diameter[3]:R:1 energy=-0.021865267812960533 pbc="F F F"
X       10.00000000      10.00000000      10.00000000       0.76716722      -0.44624896      -0.03093854      -0.45973810       1.00000000       1.50000000       1.00000000
X       11.97167531      11.36420445      11.86986674       0.70381370       0.40912089      -0.29528565      -0.50007275       1.00000000       1.50000000       1.00000000
2
Lattice="20.0 0.0 0.0 0.0 20.0 0.0 0.0 0.0 20.0" Properties=species:S:1:pos:R:3:quaternions:R:4:c_diameter[1]:R:1:c_diameter[2]:R:1:c_diameter[3]:R:1 energy=-0.028790949767711727 pbc="F F F"
X       10.00000000      10.00000000      10.00000000      -0.27901645      -0.42685841       0.80273630      -0.30912158       1.00000000       1.50000000       1.00000000
X       11.33946642      11.61997871      11.81705814      -0.31043677       0.71454807      -0.44091145      -0.44569851       1.00000000       1.50000000       1.00000000
2
Lattice="20.0 0.0 0.0 0.0 20.0 0.0 0.0 0.0 20.0" Properties=species:S:1:pos:R:3:quaternions:R:4:c_diameter[1]:R:1:c_diameter[2]:R:1:c_diameter[3]:R:1 energy=-0.10623539578629373 pbc="F F F"
X       10.00000000      10.00000000      10.00000000       0.57322135       0.78793474       0.11591711       0.19271575       1.00000000       1.50000000       1.00000000
X       11.34515721      11.33463638      11.30329022       0.76038468       0.18572986      -0.01410358      -0.62219020       1.00000000       1.50000000       1.00000000
2
Lattice="20.0 0.0 0.0 0.0 20.0 0.0 0.0 0.0 20.0" Properties=species:S:1:pos:R:3:quaternions:R:4:c_diameter[1]:R:1:c_diameter[2]:R:1:c_diameter[3]:R:1 energy=-0.04588216350045438 pbc="F F F"
X       10.00000000      10.00000000      10.00000000       0.85776626       0.10004709       0.49558567      -0.09285728       1.00000000       1.50000000       1.00000000
X       11.28961640      11.03963457      11.85752748       0.14558385      -0.08725484       0.14071532       0.97539281       1.00000000       1.50000000       1.00000000
2
Lattice="20.0 0.0 0.0 0.0 20.0 0.0 0.0 0.0 20.0" Properties=species:S:1:pos:R:3:quaternions:R:4:c_diameter[1]:R:1:c_diameter[2]:R:1:c_diameter[3]:R:1 energy=-0.017719707040108015 pbc="F F F"
X       10.00000000      10.00000000      10.00000000       0.51578922       0.64994859       0.01459210       0.55795644       1.00000000       1.50000000       1.00000000
X       11.70573370      11.76599271      11.88455695       0.50002192       0.15391375       0.26283016       0.81068424       1.00000000       1.50000000       1.00000000
2
Lattice="20.0 0.0 0.0 0.0 20.0 0.0 0.0 0.0 20.0" Properties=species:S:1:pos:R:3:quaternions:R:4:c_diameter[1]:R:1:c_diameter[2]:R:1:c_diameter[3]:R:1 energy=-0.028821950127313197 pbc="F F F"
X       10.00000000      10.00000000      10.00000000       0.84158055       0.13848121       0.26229909      -0.45140261       1.00000000       1.50000000       1.00000000
X       11.69350198      11.20479806      11.86053827       0.38782965       0.33983617       0.76988406      -0.37600276       1.00000000       1.50000000       1.00000000
2
Lattice="20.0 0.0 0.0 0.0 20.0 0.0 0.0 0.0 20.0" Properties=species:S:1:pos:R:3:quaternions:R:4:c_diameter[1]:R:1:c_diameter[2]:R:1:c_diameter[3]:R:1 energy=-0.04807524197754154 pbc="F F F"
X       10.00000000      10.00000000      10.00000000       0.70535938      -0.13393377       0.46042305      -0.52205413       1.00000000       1.50000000       1.00000000
X       11.26395734      11.58353880      11.69965370      -0.12450059       0.84447896      -0.48338966       0.19413738       1.00000000       1.50000000       1.00000000
2
Lattice="20.0 0.0 0.0 0.0 20.0 0.0 0.0 0.0 20.0" Properties=species:S:1:pos:R:3:quaternions:R:4:c_diameter[1]:R:1:c_diameter[2]:R:1:c_diameter[3]:R:1 energy=-0.05301548288481211 pbc="F F F"
X       10.00000000      10.00000000      10.00000000       0.72120478      -0.13517837      -0.34170483       0.58722081       1.00000000       1.50000000       1.00000000
X       11.97808679      11.37947920      11.35983293       0.07181089      -0.59007112       0.76187280      -0.25731131       1.00000000       1.50000000       1.00000000
2
Lattice="20.0 0.0 0.0 0.0 20.0 0.0 0.0 0.0 20.0" Properties=species:S:1:pos:R:3:quaternions:R:4:c_diameter[1]:R:1:c_diameter[2]:R:1:c_diameter[3]:R:1 energy=-0.1857555472624635 pbc="F F F"
X       10.00000000      10.00000000      10.00000000       0.17191467      -0.24202872       0.89373586      -0.33630887       1.00000000       1.50000000       1.00000000
X       11.30515396      11.07882696      11.47525807       0.37735483       0.78985962      -0.43933964      -0.20175676       1.00000000       1.50000000       1.00000000
2
Lattice="20.0 0.0 0.0 0.0 20.0 0.0 0.0 0.0 20.0" Properties=species:S:1:pos:R:3:quaternions:R:4:c_diameter[1]:R:1:c_diameter[2]:R:1:c_diameter[3]:R:1 energy=-0.025759464636518382 pbc="F F F"
X       10.00000000      10.00000000      10.00000000       0.77702528       0.07756400       0.14395731      -0.60785839       1.00000000       1.50000000       1.00000000
X       11.59771509      11.77531949      11.85355811      -0.11309393       0.07834318       0.75956693       0.63571235       1.00000000       1.50000000       1.00000000
2
Lattice="20.0 0.0 0.0 0.0 20.0 0.0 0.0 0.0 20.0" Properties=species:S:1:pos:R:3:quaternions:R:4:c_diameter[1]:R:1:c_diameter[2]:R:1:c_diameter[3]:R:1 energy=-0.053803247345563576 pbc="F F F"
X       10.00000000      10.00000000      10.00000000       0.52575897       0.00273761      -0.59589674       0.60702313       1.00000000       1.50000000       1.00000000
X       11.96286580      11.03455113      11.08857677      -0.33965682       0.07122642       0.86804892      -0.35503678       1.00000000       1.50000000       1.00000000
2
Lattice="20.0 0.0 0.0 0.0 20.0 0.0 0.0 0.0 20.0" Properties=species:S:1:pos:R:3:quaternions:R:4:c_diameter[1]:R:1:c_diameter[2]:R:1:c_diameter[3]:R:1 energy=-0.019127776027395755 pbc="F F F"
X       10.00000000      10.00000000      10.00000000      -0.33841182       0.72331646      -0.16877869      -0.57775817       1.00000000       1.50000000       1.00000000
X       11.92438797      11.45460473      11.64627585       0.69677288      -0.52866784      -0.00505809      -0.48476002       1.00000000       1.50000000       1.00000000
2
Lattice="20.0 0.0 0.0 0.0 20.0 0.0 0.0 0.0 20.0" Properties=species:S:1:pos:R:3:quaternions:R:4:c_diameter[1]:R:1:c_diameter[2]:R:1:c_diameter[3]:R:1 energy=-0.0328946710171142 pbc="F F F"
X       10.00000000      10.00000000      10.00000000      -0.16917886      -0.18332313       0.92371786       0.29071715       1.00000000       1.50000000       1.00000000
X       11.30811785      11.92794804      11.62110779       0.18226809      -0.30299946       0.69814618       0.62254444       1.00000000       1.50000000       1.00000000
2
Lattice="20.0 0.0 0.0 0.0 20.0 0.0 0.0 0.0 20.0" Properties=species:S:1:pos:R:3:quaternions:R:4:c_diameter[1]:R:1:c_diameter[2]:R:1:c_diameter[3]:R:1 energy=-0.20001298004183277 pbc="F F F"
X       10.00000000      10.00000000      10.00000000       0.29439623      -0.01583540      -0.12058066       0.94791371       1.00000000       1.50000000       1.00000000
X       11.03679290      11.54909059      11.24557363       0.93095745      -0.20922919       0.27248296       0.12367054       1.00000000       1.50000000       1.00000000
2
Lattice="20.0 0.0 0.0 0.0 20.0 0.0 0.0 0.0 20.0" Properties=species:S:1:pos:R:3:quaternions:R:4:c_diameter[1]:R:1:c_diameter[2]:R:1:c_diameter[3]:R:1 energy=-0.16081784107981129 pbc="F F F"
X       10.00000000      10.00000000      10.00000000       0.11937967       0.35848224      -0.38374289       0.84260333       1.00000000       1.50000000       1.00000000
X       11.32234446      11.65848523      11.04279973      -0.17009116      -0.06124916       0.93370890       0.30903920       1.00000000       1.50000000       1.00000000
2
Lattice="20.0 0.0 0.0 0.0 20.0 0.0 0.0 0.0 20.0" Properties=species:S:1:pos:R:3:quaternions:R:4:c_diameter[1]:R:1:c_diameter[2]:R:1:c_diameter[3]:R:1 energy=-0.04024646663009035 pbc="F F F"
X       10.00000000      10.00000000      10.00000000       0.90934186       0.15008575      -0.29710771       0.24959700       1.00000000       1.50000000       1.00000000
X       11.73560135      11.91553155      11.42420883       0.78078615      -0.32165532      -0.53320528      -0.05101935       1.00000000       1.50000000       1.00000000
2
Lattice="20.0 0.0 0.0 0.0 20.0 0.0 0.0 0.0 20.0" Properties=species:S:1:pos:R:3:quaternions:R:4:c_diameter[1]:R:1:c_diameter[2]:R:1:c_diameter[3]:R:1 energy=-0.06049253814004891 pbc="F F F"
X       10.00000000      10.00000000      10.00000000      -0.45473115       0.43971767       0.50118482       0.59049278       1.00000000       1.50000000       1.00000000
X       11.59558829      11.70010481      11.03495645      -0.41494576      -0.08687353       0.21310945       0.88025983       1.00000000       1.50000000       1.00000000
2
Lattice="20.0 0.0 0.0 0.0 20.0 0.0 0.0 0.0 20.0" Properties=species:S:1:pos:R:3:quaternions:R:4:c_diameter[1]:R:1:c_diameter[2]:R:1:c_diameter[3]:R:1 energy=-0.08236180894031628 pbc="F F F"
X       10.00000000      10.00000000      10.00000000      -0.23301862       0.97168939       0.03486858      -0.01749968       1.00000000       1.50000000       1.00000000
X       11.26795211      11.28876545      11.38154785      -0.51236777       0.23154207       0.65221744      -0.50840923       1.00000000       1.50000000       1.00000000
2
Lattice="20.0 0.0 0.0 0.0 20.0 0.0 0.0 0.0 20.0" Properties=species:S:1:pos:R:3:quaternions:R:4:c_diameter[1]:R:1:c_diameter[2]:R:1:c_diameter[3]:R:1 energy=-0.13668292310357877 pbc="F F F"
X       10.00000000      10.00000000      10.00000000       0.41386006       0.86436683      -0.11063131       0.26334491       1.00000000       1.50000000       1.00000000
X       11.18904378      11.46529634      11.50004627      -0.51466529       0.10489552      -0.55554918       0.64457868       1.00000000       1.50000000       1.00000000
2
Lattice="20.0 0.0 0.0 0.0 20.0 0.0 0.0 0.0 20.0" Properties=species:S:1:pos:R:3:quaternions:R:4:c_diameter[1]:R:1:c_diameter[2]:R:1:c_diameter[3]:R:1 energy=-0.08659368593270993 pbc="F F F"
X       10.00000000      10.00000000      10.00000000       0.00427646      -0.62880482       0.76450474       0.14184045       1.00000000       1.50000000       1.00000000
X       11.58953407      11.17867487      11.18215430       0.81267378       0.34638076      -0.39094261      -0.25835164       1.00000000       1.50000000       1.00000000
2
Lattice="20.0 0.0 0.0 0.0 20.0 0.0 0.0 0.0 20.0" Properties=species:S:1:pos:R:3:quaternions:R:4:c_diameter[1]:R:1:c_diameter[2]:R:1:c_diameter[3]:R:1 energy=-0.0579083992530717 pbc="F F F"
X       10.00000000      10.00000000      10.00000000      -0.48345353       0.78613217       0.12967324      -0.36256551       1.00000000       1.50000000       1.00000000
X       11.51947040      11.19110109      11.56205114       0.90387220       0.38834832       0.12897217      -0.12476700       1.00000000       1.50000000       1.00000000
2
Lattice="20.0 0.0 0.0 0.0 20.0 0.0 0.0 0.0 20.0" Properties=species:S:1:pos:R:3:quaternions:R:4:c_diameter[1]:R:1:c_diameter[2]:R:1:c_diameter[3]:R:1 energy=-0.03415962964461727 pbc="F F F"
X       10.00000000      10.00000000      10.00000000      -0.51117911       0.80044084       0.06154748       0.30692389       1.00000000       1.50000000       1.00000000
X       11.64459501      11.73648254      11.00401826       0.71531575      -0.42930835       0.52508240      -0.16824444       1.00000000       1.50000000       1.00000000
2
Lattice="20.0 0.0 0.0 0.0 20.0 0.0 0.0 0.0 20.0" Properties=species:S:1:pos:R:3:quaternions:R:4:c_diameter[1]:R:1:c_diameter[2]:R:1:c_diameter[3]:R:1 energy=-0.06964874432092978 pbc="F F F"
X       10.00000000      10.00000000      10.00000000       0.86378420      -0.30893084       0.37108717       0.14398926       1.00000000       1.50000000       1.00000000
X       11.12359686      11.90174353      11.48340710      -0.09967807       0.87663897      -0.42107716      -0.21038635       1.00000000       1.50000000       1.00000000
2
Lattice="20.0 0.0 0.0 0.0 20.0 0.0 0.0 0.0 20.0" Properties=species:S:1:pos:R:3:quaternions:R:4:c_diameter[1]:R:1:c_diameter[2]:R:1:c_diameter[3]:R:1 energy=-0.08096648516861328 pbc="F F F"
X       10.00000000      10.00000000      10.00000000       0.87502926      -0.46811380       0.01803572       0.12193433       1.00000000       1.50000000       1.00000000
X       11.12676336      11.85350405      11.22214610       0.47564718      -0.53264245       0.11439256       0.69062734       1.00000000       1.50000000       1.00000000
2
Lattice="20.0 0.0 0.0 0.0 20.0 0.0 0.0 0.0 20.0" Properties=species:S:1:pos:R:3:quaternions:R:4:c_diameter[1]:R:1:c_diameter[2]:R:1:c_diameter[3]:R:1 energy=-0.17339181693572925 pbc="F F F"
X       10.00000000      10.00000000      10.00000000       0.78330501      -0.01206774      -0.13888398      -0.60580432       1.00000000       1.50000000       1.00000000
X       11.25339513      11.48967614      11.10192954       0.06789288       0.84982435      -0.51788977       0.07056428       1.00000000       1.50000000       1.00000000
2
Lattice="20.0 0.0 0.0 0.0 20.0 0.0 0.0 0.0 20.0" Properties=species:S:1:pos:R:3:quaternions:R:4:c_diameter[1]:R:1:c_diameter[2]:R:1:c_diameter[3]:R:1 energy=-0.10002176556507912 pbc="F F F"
X       10.00000000      10.00000000      10.00000000      -0.43887050       0.14377491      -0.47981282       0.74599002       1.00000000       1.50000000       1.00000000
X       11.31494751      11.09776488      11.91200781       0.43716736      -0.50192481       0.54272482       0.51225576       1.00000000       1.50000000       1.00000000
2
Lattice="20.0 0.0 0.0 0.0 20.0 0.0 0.0 0.0 20.0" Properties=species:S:1:pos:R:3:quaternions:R:4:c_diameter[1]:R:1:c_diameter[2]:R:1:c_diameter[3]:R:1 energy=-0.06183756038097435 pbc="F F F"
X       10.00000000      10.00000000      10.00000000      -0.23141842       0.48833555       0.83724417       0.08364273       1.00000000       1.50000000       1.00000000
X       11.22304726      11.46637192      11.81586820      -0.57316459       0.15414362       0.58936395      -0.54806225       1.00000000       1.50000000       1.00000000
2
Lattice="20.0 0.0 0.0 0.0 20.0 0.0 0.0 0.0 20.0" Properties=species:S:1:pos:R:3:quaternions:R:4:c_diameter[1]:R:1:c_diameter[2]:R:1:c_diameter[3]:R:1 energy=-0.05114123968356779 pbc="F F F"
X       10.00000000      10.00000000      10.00000000       0.45268606       0.63514150      -0.62075546       0.07958177       1.00000000       1.50000000       1.00000000
X       11.53130824      11.52456458      11.42725712      -0.47258919      -0.23847609       0.84788972      -0.02952346       1.00000000       1.50000000       1.00000000
2
Lattice="20.0 0.0 0.0 0.0 20.0 0.0 0.0 0.0 20.0" Properties=species:S:1:pos:R:3:quaternions:R:4:c_diameter[1]:R:1:c_diameter[2]:R:1:c_diameter[3]:R:1 energy=-0.07399447573891545 pbc="F F F"
X       10.00000000      10.00000000      10.00000000       0.78235972      -0.42251435      -0.06086434       0.45353105       1.00000000       1.50000000       1.00000000
X       11.51594389      11.65445809      11.13159316       0.21763406      -0.48142877       0.53943411       0.65564670       1.00000000       1.50000000       1.00000000
2
Lattice="20.0 0.0 0.0 0.0 20.0 0.0 0.0 0.0 20.0" Properties=species:S:1:pos:R:3:quaternions:R:4:c_diameter[1]:R:1:c_diameter[2]:R:1:c_diameter[3]:R:1 energy=-0.06803386290390402 pbc="F F F"
X       10.00000000      10.00000000      10.00000000       0.38697729       0.02618125       0.60641685       0.69413379       1.00000000       1.50000000       1.00000000
X       11.27912016      11.71734819      11.28455798       0.79191496       0.23273958       0.41352052      -0.38432248       1.00000000       1.50000000       1.00000000
2
Lattice="20.0 0.0 0.0 0.0 20.0 0.0 0.0 0.0 20.0" Properties=species:S:1:pos:R:3:quaternions:R:4:c_diameter[1]:R:1:c_diameter[2]:R:1:c_diameter[3]:R:1 energy=-0.039457955148689286 pbc="F F F"
X       10.00000000      10.00000000      10.00000000       0.99198611      -0.09288249      -0.08283807      -0.02177737       1.00000000       1.50000000       1.00000000
X       11.95207234      11.05273167      11.68517764      -0.21087416      -0.16224862      -0.61542155       0.74193247       1.00000000       1.50000000       1.00000000
2
Lattice="20.0 0.0 0.0 0.0 20.0 0.0 0.0 0.0 20.0" Properties=species:S:1:pos:R:3:quaternions:R:4:c_diameter[1]:R:1:c_diameter[2]:R:1:c_diameter[3]:R:1 energy=-0.025391661827392296 pbc="F F F"
X       10.00000000      10.00000000      10.00000000       0.74959150       0.25954100       0.50872639       0.33458706       1.00000000       1.50000000       1.00000000
X       11.38031628      11.99254663      11.74830761       0.14846686       0.25545505       0.86849637      -0.39801301       1.00000000       1.50000000       1.00000000
2
Lattice="20.0 0.0 0.0 0.0 20.0 0.0 0.0 0.0 20.0" Properties=species:S:1:pos:R:3:quaternions:R:4:c_diameter[1]:R:1:c_diameter[2]:R:1:c_diameter[3]:R:1 energy=-0.11932721180386915 pbc="F F F"
X       10.00000000      10.00000000      10.00000000      -0.15746069      -0.40828071       0.38683601       0.81170863       1.00000000       1.50000000       1.00000000
X       11.08751368      11.56059333      11.43925253       0.34937362      -0.00291018       0.91184481       0.21556586       1.00000000       1.50000000       1.00000000
2
Lattice="20.0 0.0 0.0 0.0 20.0 0.0 0.0 0.0 20.0" Properties=species:S:1:pos:R:3:quaternions:R:4:c_diameter[1]:R:1:c_diameter[2]:R:1:c_diameter[3]:R:1 energy=-0.14621534397868258 pbc="F F F"
X       10.00000000      10.00000000      10.00000000       0.17241976       0.69249884      -0.60238907       0.35755305       1.00000000       1.50000000       1.00000000
X       11.56794480      11.47064784      11.02307010      -0.55045808       0.44016976      -0.05663073       0.70713467       1.00000000       1.50000000       1.00000000
2
Lattice="20.0 0.0 0.0 0.0 20.0 0.0 0.0 0.0 20.0" Properties=species:S:1:pos:R:3:quaternions:R:4:c_diameter[1]:R:1:c_diameter[2]:R:1:c_diameter[3]:R:1 energy=-0.09563338438156059 pbc="F F F"
X       10.00000000      10.00000000      10.00000000      -0.18595126      -0.40129880      -0.22674108       0.86773837       1.00000000       1.50000000       1.00000000
X       11.31721204      11.30470420      11.66268115      -0.30208809       0.79542627      -0.19670623       0.48718220       1.00000000       1.50000000       1.00000000
2
Lattice="20.0 0.0 0.0 0.0 20.0 0.0 0.0 0.0 20.0" Properties=species:S:1:pos:R:3:quaternions:R:4:c_diameter[1]:R:1:c_diameter[2]:R:1:c_diameter[3]:R:1 energy=-0.08399793479343082 pbc="F F F"
X       10.00000000      10.00000000      10.00000000       0.68311529      -0.45311137       0.33799849      -0.46238578       1.00000000       1.50000000       1.00000000
X       11.87870390      11.00560483      11.24099209      -0.33771774       0.64791496      -0.21632696       0.64757670       1.00000000       1.50000000       1.00000000
2
Lattice="20.0 0.0 0.0 0.0 20.0 0.0 0.0 0.0 20.0" Properties=species:S:1:pos:R:3:quaternions:R:4:c_diameter[1]:R:1:c_diameter[2]:R:1:c_diameter[3]:R:1 energy=-0.3204092237360789 pbc="F F F"
X       10.00000000      10.00000000      10.00000000       0.34632829       0.30631124       0.67206474       0.57841086       1.00000000       1.50000000       1.00000000
X       11.75180083      11.10283333      11.13112713      -0.46926375      -0.31254905       0.04015119       0.82491970       1.00000000       1.50000000       1.00000000
2
Lattice="20.0 0.0 0.0 0.0 20.0 0.0 0.0 0.0 20.0" Properties=species:S:1:pos:R:3:quaternions:R:4:c_diameter[1]:R:1:c_diameter[2]:R:1:c_diameter[3]:R:1 energy=-0.05662523106677593 pbc="F F F"
X       10.00000000      10.00000000      10.00000000       0.89758121       0.10224578      -0.42159914      -0.07840879       1.00000000       1.50000000       1.00000000
X       11.32339657      11.84472695      11.25938555       0.06025146       0.80588562      -0.55321918      -0.20215505       1.00000000       1.50000000       1.00000000
2
Lattice="20.0 0.0 0.0 0.0 20.0 0.0 0.0 0.0 20.0" Properties=species:S:1:pos:R:3:quaternions:R:4:c_diameter[1]:R:1:c_diameter[2]:R:1:c_diameter[3]:R:1 energy=-0.053215627775967285 pbc="F F F"
X       10.00000000      10.00000000      10.00000000       0.85085318       0.13838609      -0.49376025       0.11445078       1.00000000       1.50000000       1.00000000
X       11.21443158      11.91599645      11.11642853      -0.06884373       0.04108593       0.87624695      -0.47514605       1.00000000       1.50000000       1.00000000
2
Lattice="20.0 0.0 0.0 0.0 20.0 0.0 0.0 0.0 20.0" Properties=species:S:1:pos:R:3:quaternions:R:4:c_diameter[1]:R:1:c_diameter[2]:R:1:c_diameter[3]:R:1 energy=-0.04175251623074509 pbc="F F F"
X       10.00000000      10.00000000      10.00000000       0.84282989      -0.17132546       0.15338543      -0.48657813       1.00000000       1.50000000       1.00000000