2
Lattice="20.0 0.0 0.0 0.0 20.0 0.0 0.0 0.0 20.0" Properties=species:S:1:pos:R:3:quaternions:R:4:c_diameter\[1\]:R:1:c_diameter\[2\]:R:1:c_diameter\[3\]:R:1 energy=-0.061000181887834806 pbc="F F F"
X       10.00000000      10.00000000      10.00000000      -0.22885761       0.95608024       0.13824161      -0.12010005       1.00000000       2.00000000       1.00000000
X       11.31545262      11.09384559      11.40836212       0.12119825      -0.64505452      -0.38755795       0.64731328       1.00000000       2.00000000       1.00000000
2
Lattice="20.0 0.0 0.0 0.0 20.0 0.0 0.0 0.0 20.0" Properties=species:S:1:pos:R:3:quaternions:R:4:c_diameter\[1\]:R:1:c_diameter\[2\]:R:1:c_diameter\[3\]:R:1 energy=-0.020445201920642503 pbc="F F F"
X       10.00000000      10.00000000      10.00000000      -0.51286344       0.08201114       0.78772881      -0.33125306       1.00000000       2.00000000       1.00000000
X       11.22265319      11.76210174      11.75743863       0.15646103      -0.26545757       0.92473299      -0.22343036       1.00000000       2.00000000       1.00000000
2
Lattice="20.0 0.0 0.0 0.0 20.0 0.0 0.0 0.0 20.0" Properties=species:S:1:pos:R:3:quaternions:R:4:c_diameter\[1\]:R:1:c_diameter\[2\]:R:1:c_diameter\[3\]:R:1 energy=-0.03195482510788294 pbc="F F F"
X       10.00000000      10.00000000      10.00000000      -0.09716704       0.64846909       0.72879881       0.19722752       1.00000000       2.00000000       1.00000000
X       11.70130219      11.87155494      11.29087209       0.51290079       0.34447000       0.75572252      -0.21715589       1.00000000       2.00000000       1.00000000
2
Lattice="20.0 0.0 0.0 0.0 20.0 0.0 0.0 0.0 20.0" Properties=species:S:1:pos:R:3:quaternions:R:4:c_diameter\[1\]:R:1:c_diameter\[2\]:R:1:c_diameter\[3\]:R:1 energy=-0.1426018841323618 pbc="F F F"
X       10.00000000      10.00000000      10.00000000      -0.28432791       0.83339560       0.18109084      -0.43796749       1.00000000       2.00000000       1.00000000
X       11.35745255      11.05662811      11.78445228       0.45186965       0.09839632       0.76428409       0.44944612       1.00000000       2.00000000       1.00000000
2
Lattice="20.0 0.0 0.0 0.0 20.0 0.0 0.0 0.0 20.0" Properties=species:S:1:pos:R:3:quaternions:R:4:c_diameter\[1\]:R:1:c_diameter\[2\]:R:1:c_diameter\[3\]:R:1 energy=-0.025817525056994115 pbc="F F F"
X       10.00000000      10.00000000      10.00000000       0.42729763       0.50100635       0.36251185       0.65954115       1.00000000       2.00000000       1.00000000
X       11.87168341      11.64053315      11.48756375       0.64011613      -0.13476604      -0.35440722       0.66819532       1.00000000       2.00000000       1.00000000
2
Lattice="20.0 0.0 0.0 0.0 20.0 0.0 0.0 0.0 20.0" Properties=species:S:1:pos:R:3:quaternions:R:4:c_diameter\[1\]:R:1:c_diameter\[2\]:R:1:c_diameter\[3\]:R:1 energy=-0.03810443278313475 pbc="F F F"
X       10.00000000      10.00000000      10.00000000       0.18881476       0.13119648       0.35218557       0.90724958       1.00000000       2.00000000       1.00000000
X       11.46075901      11.75724454      11.20906331       0.30783316       0.74613790       0.33190966      -0.48821404       1.00000000       2.00000000       1.00000000
2
Lattice="20.0 0.0 0.0 0.0 20.0 0.0 0.0 0.0 20.0" Properties=species:S:1:pos:R:3:quaternions:R:4:c_diameter\[1\]:R:1:c_diameter\[2\]:R:1:c_diameter\[3\]:R:1 energy=-0.03187127057403591 pbc="F F F"
X       10.00000000      10.00000000      10.00000000       0.28863988       0.65879232       0.61420842      -0.32469635       1.00000000       2.00000000       1.00000000
X       11.91452486      11.23794155      11.45409536       0.28307462       0.79387052      -0.13500543       0.52097207       1.00000000       2.00000000       1.00000000
2
Lattice="20.0 0.0 0.0 0.0 20.0 0.0 0.0 0.0 20.0" Properties=species:S:1:pos:R:3:quaternions:R:4:c_diameter\[1\]:R:1:c_diameter\[2\]:R:1:c_diameter\[3\]:R:1 energy=-0.01497491836985384 pbc="F F F"
X       10.00000000      10.00000000      10.00000000       0.52451654       0.45794094       0.69717571      -0.17064148       1.00000000       2.00000000       1.00000000
X       11.68537652      11.70532814      11.78893171       0.79649608       0.29332985      -0.16247151       0.50314471       1.00000000       2.00000000       1.00000000
2
Lattice="20.0 0.0 0.0 0.0 20.0 0.0 0.0 0.0 20.0" Properties=species:S:1:pos:R:3:quaternions:R:4:c_diameter\[1\]:R:1:c_diameter\[2\]:R:1:c_diameter\[3\]:R:1 energy=-0.02489723484729984 pbc="F F F"
X       10.00000000      10.00000000      10.00000000      -0.25832249      -0.08653588       0.79547885      -0.54128960       1.00000000       2.00000000       1.00000000
X       11.99054187      11.44233704      11.24372555       0.16697202       0.66603418      -0.12370236       0.71639133       1.00000000       2.00000000       1.00000000
2
Lattice="20.0 0.0 0.0 0.0 20.0 0.0 0.0 0.0 20.0" Properties=species:S:1:pos:R:3:quaternions:R:4:c_diameter\[1\]:R:1:c_diameter\[2\]:R:1:c_diameter\[3\]:R:1 energy=-0.0659561222218129 pbc="F F F"
X       10.00000000      10.00000000      10.00000000       0.38386668      -0.30033841       0.80377006       0.34116990       1.00000000       2.00000000       1.00000000
X       11.47572539      11.19684401      11.66098869       0.13191842      -0.41019547       0.85828951       0.27870473       1.00000000       2.00000000       1.00000000
2
Lattice="20.0 0.0 0.0 0.0 20.0 0.0 0.0 0.0 20.0" Properties=species:S:1:pos:R:3:quaternions:R:4:c_diameter\[1\]:R:1:c_diameter\[2\]:R:1:c_diameter\[3\]:R:1 energy=-0.02600878550410294 pbc="F F F"
X       10.00000000      10.00000000      10.00000000      -0.44381974       0.15465355       0.85151475       0.23244127       1.00000000       2.00000000       1.00000000
X       11.50805901      11.76471310      11.98475359      -0.23220297       0.88018191       0.04229895      -0.41179169       1.00000000       2.00000000       1.00000000
2
Lattice="20.0 0.0 0.0 0.0 20.0 0.0 0.0 0.0 20.0" Properties=species:S:1:pos:R:3:quaternions:R:4:c_diameter\[1\]:R:1:c_diameter\[2\]:R:1:c_diameter\[3\]:R:1 energy=-0.01641644527452837 pbc="F F F"
X       10.00000000      10.00000000      10.00000000      -0.03907619       0.04967199       0.08275412       0.99456398       1.00000000       2.00000000       1.00000000
X       11.97547868      11.49624227      11.71266374      -0.18266090       0.92348512       0.33448512       0.04393092       1.00000000       2.00000000       1.00000000
2
Lattice="20.0 0.0 0.0 0.0 20.0 0.0 0.0 0.0 20.0" Properties=species:S:1:pos:R:3:quaternions:R:4:c_diameter\[1\]:R:1:c_diameter\[2\]:R:1:c_diameter\[3\]:R:1 energy=-0.09051486743763858 pbc="F F F"
X       10.00000000      10.00000000      10.00000000       0.89810605       0.32443643      -0.26371589       0.13638346       1.00000000       2.00000000       1.00000000
X       11.71086010      11.52417456      11.02029867       0.60339433       0.36458572       0.60871322       0.36395158       1.00000000       2.00000000       1.00000000
2
Lattice="20.0 0.0 0.0 0.0 20.0 0.0 0.0 0.0 20.0" Properties=species:S:1:pos:R:3:quaternions:R:4:c_diameter\[1\]:R:1:c_diameter\[2\]:R:1:c_diameter\[3\]:R:1 energy=-0.023412613404761605 pbc="F F F"
X       10.00000000      10.00000000      10.00000000       0.07620558      -0.38067328       0.91008145      -0.14502524       1.00000000       2.00000000       1.00000000
X       11.61107945      11.13287610      11.77926422       0.89495171       0.42432120       0.13444798       0.03060557       1.00000000       2.00000000       1.00000000
2
Lattice="20.0 0.0 0.0 0.0 20.0 0.0 0.0 0.0 20.0" Properties=species:S:1:pos:R:3:quaternions:R:4:c_diameter\[1\]:R:1:c_diameter\[2\]:R:1:c_diameter\[3\]:R:1 energy=-0.10406340806244642 pbc="F F F"
X       10.00000000      10.00000000      10.00000000       0.92005581       0.16564747       0.35479870       0.01327026       1.00000000       2.00000000       1.00000000
X       11.46271255      11.65867630      11.12081845       0.34596165       0.87285195      -0.11332868       0.32495633       1.00000000       2.00000000       1.00000000
2
Lattice="20.0 0.0 0.0 0.0 20.0 0.0 0.0 0.0 20.0" Properties=species:S:1:pos:R:3:quaternions:R:4:c_diameter\[1\]:R:1:c_diameter\[2\]:R:1:c_diameter\[3\]:R:1 energy=-0.04009523199267911 pbc="F F F"
X       10.00000000      10.00000000      10.00000000      -0.27041708       0.64202558       0.34467923       0.62918518       1.00000000       2.00000000       1.00000000
X       11.44577687      11.18424386      11.72598927      -0.39268241       0.76318494       0.02822729      -0.51239877       1.00000000       2.00000000       1.00000000
2
Lattice="20.0 0.0 0.0 0.0 20.0 0.0 0.0 0.0 20.0" Properties=species:S:1:pos:R:3:quaternions:R:4:c_diameter\[1\]:R:1:c_diameter\[2\]:R:1:c_diameter\[3\]:R:1 energy=-0.13255924971251404 pbc="F F F"
X       10.00000000      10.00000000      10.00000000       0.44720480      -0.30937817       0.83912154       0.01296387       1.00000000       2.00000000       1.00000000
X       11.13733269      11.47561656      11.00337362       0.67062066       0.40915573       0.61875527      -0.00119624       1.00000000       2.00000000       1.00000000
2
Lattice="20.0 0.0 0.0 0.0 20.0 0.0 0.0 0.0 20.0" Properties=species:S:1:pos:R:3:quaternions:R:4:c_diameter\[1\]:R:1:c_diameter\[2\]:R:1:c_diameter\[3\]:R:1 energy=-0.03628831062576362 pbc="F F F"
X       10.00000000      10.00000000      10.00000000       0.95704491       0.22346444      -0.09894391       0.15600896       1.00000000       2.00000000       1.00000000
X       11.42279436      11.20378209      11.75738656       0.72421448       0.63840491      -0.05115660       0.25560821       1.00000000       2.00000000       1.00000000
2
Lattice="20.0 0.0 0.0 0.0 20.0 0.0 0.0 0.0 20.0" Properties=species:S:1:pos:R:3:quaternions:R:4:c_diameter\[1\]:R:1:c_diameter\[2\]:R:1:c_diameter\[3\]:R:1 energy=-0.04267665857751064 pbc="F F F"
X       10.00000000      10.00000000      10.00000000       0.05293538      -0.54479499      -0.55851939       0.62325946       1.00000000       2.00000000       1.00000000
X       11.43019804      11.53548563      11.01457454       0.81732766       0.35829489      -0.40803888      -0.19262540       1.00000000       2.00000000       1.00000000
2
Lattice="20.0 0.0 0.0 0.0 20.0 0.0 0.0 0.0 20.0" Properties=species:S:1:pos:R:3:quaternions:R:4:c_diameter\[1\]:R:1:c_diameter\[2\]:R:1:c_diameter\[3\]:R:1 energy=-0.02303619549981866 pbc="F F F"
X       10.00000000      10.00000000      10.00000000      -0.09918052       0.33476589       0.79721806       0.49248186       1.00000000       2.00000000       1.00000000
X       11.76370942      11.79601754      11.91504469       0.14587507      -0.00503957       0.28020187       0.94877920       1.00000000       2.00000000       1.00000000
2
Lattice="20.0 0.0 0.0 0.0 20.0 0.0 0.0 0.0 20.0" Properties=species:S:1:pos:R:3:quaternions:R:4:c_diameter\[1\]:R:1:c_diameter\[2\]:R:1:c_diameter\[3\]:R:1 energy=-0.012179566549288692 pbc="F F F"
X       10.00000000      10.00000000      10.00000000       0.38061386      -0.09260978      -0.18571449       0.90114741       1.00000000       2.00000000       1.00000000
X       11.92734258      11.41468809      11.92825871      -0.58971809       0.59576973      -0.48091283       0.25693161       1.00000000       2.00000000       1.00000000
2
Lattice="20.0 0.0 0.0 0.0 20.0 0.0 0.0 0.0 20.0" Properties=species:S:1:pos:R:3:quaternions:R:4:c_diameter\[1\]:R:1:c_diameter\[2\]:R:1:c_diameter\[3\]:R:1 energy=-0.03404981924445562 pbc="F F F"
X       10.00000000      10.00000000      10.00000000       0.52224134       0.24366579       0.78147863      -0.23912781       1.00000000       2.00000000       1.00000000
X       11.34014753      11.83581947      11.32712870      -0.32743287      -0.22056503       0.39601906       0.82904022       1.00000000       2.00000000       1.00000000
2
Lattice="20.0 0.0 0.0 0.0 20.0 0.0 0.0 0.0 20.0" Properties=species:S:1:pos:R:3:quaternions:R:4:c_diameter\[1\]:R:1:c_diameter\[2\]:R:1:c_diameter\[3\]:R:1 energy=-0.012730878635176345 pbc="F F F"
X       10.00000000      10.00000000      10.00000000      -0.25633010       0.75928510      -0.38436751      -0.45830409       1.00000000       2.00000000       1.00000000
X       11.31789624      11.93427871      11.92353805       0.35846294       0.73949281       0.53880880      -0.18530994       1.00000000       2.00000000       1.00000000
2
Lattice="20.0 0.0 0.0 0.0 20.0 0.0 0.0 0.0 20.0" Properties=species:S:1:pos:R:3:quaternions:R:4:c_diameter\[1\]:R:1:c_diameter\[2\]:R:1:c_diameter\[3\]:R:1 energy=-0.054330131423677 pbc="F F F"
X       10.00000000      10.00000000      10.00000000      -0.18393911       0.24627661       0.92544888       0.22149178       1.00000000       2.00000000       1.00000000
X       11.78421038      11.89212439      11.63449623       0.70706232       0.63694118       0.08072780      -0.29639811       1.00000000       2.00000000       1.00000000
2
Lattice="20.0 0.0 0.0 0.0 20.0 0.0 0.0 0.0 20.0" Properties=species:S:1:pos:R:3:quaternions:R:4:c_diameter\[1\]:R:1:c_diameter\[2\]:R:1:c_diameter\[3\]:R:1 energy=-0.02651467217866358 pbc="F F F"
X       10.00000000      10.00000000      10.00000000      -0.24804380       0.92178433       0.05197807      -0.29340450       1.00000000       2.00000000       1.00000000
X       11.79055417      11.73395429      11.63158059      -0.30884542       0.05410568       0.00322507       0.94956657       1.00000000       2.00000000       1.00000000
2
Lattice="20.0 0.0 0.0 0.0 20.0 0.0 0.0 0.0 20.0" Properties=species:S:1:pos:R:3:quaternions:R:4:c_diameter\[1\]:R:1:c_diameter\[2\]:R:1:c_diameter\[3\]:R:1 energy=-0.06293272225448705 pbc="F F F"
X       10.00000000      10.00000000      10.00000000       0.71841355      -0.62714762      -0.28635744       0.09255945       1.00000000       2.00000000       1.00000000
X       11.13465544      11.60578800      11.99637685       0.53289286       0.54338925      -0.47932526      -0.43703617       1.00000000       2.00000000       1.00000000
2
Lattice="20.0 0.0 0.0 0.0 20.0 0.0 0.0 0.0 20.0" Properties=species:S:1:pos:R:3:quaternions:R:4:c_diameter\[1\]:R:1:c_diameter\[2\]:R:1:c_diameter\[3\]:R:1 energy=-0.06642771648409594 pbc="F F F"
X       10.00000000      10.00000000      10.00000000       0.04706332       0.79523170      -0.55998175       0.22762255       1.00000000       2.00000000       1.00000000
X       11.66687261      11.96699296      11.70968990      -0.52089919      -0.05420641      -0.40042728       0.75192001       1.00000000       2.00000000       1.00000000
2
Lattice="20.0 0.0 0.0 0.0 20.0 0.0 0.0 0.0 20.0" Properties=species:S:1:pos:R:3:quaternions:R:4:c_diameter\[1\]:R:1:c_diameter\[2\]:R:1:c_diameter\[3\]:R:1 energy=-0.02092056486457472 pbc="F F F"
X       10.00000000      10.00000000      10.00000000      -0.03911395       0.77335376      -0.55485061      -0.30419543       1.00000000       2.00000000       1.00000000
X       11.24649281      11.64417584      11.89176068       0.67474641       0.38407136      -0.51527095       0.36290815       1.00000000       2.00000000       1.00000000
2
Lattice="20.0 0.0 0.0 0.0 20.0 0.0 0.0 0.0 20.0" Properties=species:S:1:pos:R:3:quaternions:R:4:c_diameter\[1\]:R:1:c_diameter\[2\]:R:1:c_diameter\[3\]:R:1 energy=-0.35383178062810755 pbc="F F F"
X       10.00000000      10.00000000      10.00000000       0.79571572       0.20692250      -0.54194354      -0.17411713       1.00000000       2.00000000       1.00000000
X       11.07902138      11.02901383      11.59135022       0.93223470      -0.30141816       0.00840789       0.20003717       1.00000000       2.00000000       1.00000000
2
Lattice="20.0 0.0 0.0 0.0 20.0 0.0 0.0 0.0 20.0" Properties=species:S:1:pos:R:3:quaternions:R:4:c_diameter\[1\]:R:1:c_diameter\[2\]:R:1:c_diameter\[3\]:R:1 energy=-0.029715798034784607 pbc="F F F"
X       10.00000000      10.00000000      10.00000000      -0.14382228       0.70258300       0.23451383      -0.65627399       1.00000000       2.00000000       1.00000000
X       11.35934749      11.54995748      11.49505927       0.75208459      -0.43351913       0.00602963      -0.49638048       1.00000000       2.00000000       1.00000000
2
Lattice="20.0 0.0 0.0 0.0 20.0 0.0 0.0 0.0 20.0" Properties=species:S:1:pos:R:3:quaternions:R:4:c_diameter\[1\]:R:1:c_diameter\[2\]:R:1:c_diameter\[3\]:R:1 energy=-0.03152055386585807 pbc="F F F"
X       10.00000000      10.00000000      10.00000000      -0.21214868       0.86845580      -0.02273484       0.44750484       1.00000000       2.00000000       1.00000000
X       11.12648973      11.25105579      11.89761100       0.83381111      -0.40132923       0.21293721      -0.31361062       1.00000000       2.00000000       1.00000000
2
Lattice="20.0 0.0 0.0 0.0 20.0 0.0 0.0 0.0 20.0" Properties=species:S:1:pos:R:3:quaternions:R:4:c_diameter\[1\]:R:1:c_diameter\[2\]:R:1:c_diameter\[3\]:R:1 energy=-0.04567610177814192 pbc="F F F"
X       10.00000000      10.00000000      10.00000000       0.32007939      -0.62886195       0.67939771      -0.20124756       1.00000000       2.00000000       1.00000000
X       11.44808455      11.35625119      11.36355600       0.31612608      -0.06568859       0.86477918      -0.38458585       1.00000000       2.00000000       1.00000000
2
Lattice="20.0 0.0 0.0 0.0 20.0 0.0 0.0 0.0 20.0" Properties=species:S:1:pos:R:3:quaternions:R:4:c_diameter\[1\]:R:1:c_diameter\[2\]:R:1:c_diameter\[3\]:R:1 energy=-0.011506863986121165 pbc="F F F"
X       10.00000000      10.00000000      10.00000000       0.26789157       0.80545678       0.51357425       0.12535937       1.00000000       2.00000000       1.00000000
X       11.94198210      11.83662693      11.65992545       0.25347833       0.87023875       0.25745038       0.33489187       1.00000000       2.00000000       1.00000000
2
Lattice="20.0 0.0 0.0 0.0 20.0 0.0 0.0 0.0 20.0" Properties=species:S:1:pos:R:3:quaternions:R:4:c_diameter\[1\]:R:1:c_diameter\[2\]:R:1:c_diameter\[3\]:R:1 energy=-0.06248255710301636 pbc="F F F"
X       10.00000000      10.00000000      10.00000000      -0.30391316      -0.65820018       0.68855406       0.01739571       1.00000000       2.00000000       1.00000000
X       11.17881017      11.87496829      11.40106520       0.45975406       0.66760038      -0.55558706       0.18509175       1.00000000       2.00000000       1.00000000
2
Lattice="20.0 0.0 0.0 0.0 20.0 0.0 0.0 0.0 20.0" Properties=species:S:1:pos:R:3:quaternions:R:4:c_diameter\[1\]:R:1:c_diameter\[2\]:R:1:c_diameter\[3\]:R:1 energy=-0.26256921470664674 pbc="F F F"
X       10.00000000      10.00000000      10.00000000       0.82430325      -0.45626117      -0.15639106       0.29646541       1.00000000       2.00000000       1.00000000
X       11.07862202      11.44216772      11.48632279       0.14414172       0.90854491       0.36950716      -0.13127746       1.00000000       2.00000000       1.00000000
2
Lattice="20.0 0.0 0.0 0.0 20.0 0.0 0.0 0.0 20.0" Properties=species:S:1:pos:R:3:quaternions:R:4:c_diameter\[1\]:R:1:c_diameter\[2\]:R:1:c_diameter\[3\]:R:1 energy=-0.12299316986144787 pbc="F F F"
X       10.00000000      10.00000000      10.00000000       0.31750101       0.93893375       0.10235437      -0.08438077       1.00000000       2.00000000       1.00000000
X       11.59944861      11.43188409      11.05279243       0.74925704       0.45613408       0.05439514      -0.47707102       1.00000000       2.00000000       1.00000000
2
Lattice="20.0 0.0 0.0 0.0 20.0 0.0 0.0 0.0 20.0" Properties=species:S:1:pos:R:3:quaternions:R:4:c_diameter\[1\]:R:1:c_diameter\[2\]:R:1:c_diameter\[3\]:R:1 energy=-0.2115265046823379 pbc="F F F"
X       10.00000000      10.00000000      10.00000000      -0.23416573       0.26625906      -0.08615419       0.93104779       1.00000000       2.00000000       1.00000000
X       11.57807166      11.45867331      11.16115022      -0.51182796      -0.11938145       0.17738858       0.83205378       1.00000000       2.00000000       1.00000000
2
Lattice="20.0 0.0 0.0 0.0 20.0 0.0 0.0 0.0 20.0" Properties=species:S:1:pos:R:3:quaternions:R:4:c_diameter\[1\]:R:1:c_diameter\[2\]:R:1:c_diameter\[3\]:R:1 energy=-0.18634948591934786 pbc="F F F"
X       10.00000000      10.00000000      10.00000000       0.38555715       0.54688418       0.71074640      -0.21703209       1.00000000       2.00000000       1.00000000
X       11.37118024      11.00170575      11.26865594       0.67156097      -0.24129899      -0.65698070      -0.24322215       1.00000000       2.00000000       1.00000000
2
Lattice="20.0 0.0 0.0 0.0 20.0 0.0 0.0 0.0 20.0" Properties=species:S:1:pos:R:3:quaternions:R:4:c_diameter\[1\]:R:1:c_diameter\[2\]:R:1:c_diameter\[3\]:R:1 energy=-0.04799486843080553 pbc="F F F"
X       10.00000000      10.00000000      10.00000000       0.25201374       0.45381056       0.83246443       0.19377312       1.00000000       2.00000000       1.00000000
X       11.66441236      11.55739842      11.53051676       0.44530732       0.74066917       0.38626089       0.32235555       1.00000000       2.00000000       1.00000000
2
Lattice="20.0 0.0 0.0 0.0 20.0 0.0 0.0 0.0 20.0" Properties=species:S:1:pos:R:3:quaternions:R:4:c_diameter\[1\]:R:1:c_diameter\[2\]:R:1:c_diameter\[3\]:R:1 energy=-0.37821662751740054 pbc="F F F"
X       10.00000000      10.00000000      10.00000000      -0.14347884       0.23111082       0.96174993      -0.03222869       1.00000000       2.00000000       1.00000000
X       11.26783613      11.27989135      11.29373621      -0.32600068       0.33532625       0.86033401      -0.20274429       1.00000000       2.00000000       1.00000000
2
Lattice="20.0 0.0 0.0 0.0 20.0 0.0 0.0 0.0 20.0" Properties=species:S:1:pos:R:3:quaternions:R:4:c_diameter\[1\]:R:1:c_diameter\[2\]:R:1:c_diameter\[3\]:R:1 energy=-0.398937311155469 pbc="F F F"
X       10.00000000      10.00000000      10.00000000      -0.48223926       0.67053104       0.44798562       0.34226058       1.00000000       2.00000000       1.00000000
X       11.03463647      11.24652329      11.55528444      -0.63549496      -0.42888803      -0.00700137       0.64199080       1.00000000       2.00000000       1.00000000
2
Lattice="20.0 0.0 0.0 0.0 20.0 0.0 0.0 0.0 20.0" Properties=species:S:1:pos:R:3:quaternions:R:4:c_diameter\[1\]:R:1:c_diameter\[2\]:R:1:c_diameter\[3\]:R:1 energy=-0.03188347573683958 pbc="F F F"
X       10.00000000      10.00000000      10.00000000       0.68186370       0.45698266       0.43270378      -0.37282190       1.00000000       2.00000000       1.00000000
X       11.60635542      11.46456275      11.80579904      -0.00886708      -0.46254491       0.83218927      -0.30567073       1.00000000       2.00000000       1.00000000
2
Lattice="20.0 0.0 0.0 0.0 20.0 0.0 0.0 0.0 20.0" Properties=species:S:1:pos:R:3:quaternions:R:4:c_diameter\[1\]:R:1:c_diameter\[2\]:R:1:c_diameter\[3\]:R:1 energy=-0.013635062024094598 pbc="F F F"
X       10.00000000      10.00000000      10.00000000       0.25662421      -0.52031831      -0.30812382       0.75397121       1.00000000       2.00000000       1.00000000
X       11.58446942      11.95355449      11.97083805       0.60885274       0.40902401       0.56715311       0.37461319       1.00000000       2.00000000       1.00000000
2
Lattice="20.0 0.0 0.0 0.0 20.0 0.0 0.0 0.0 20.0" Properties=species:S:1:pos:R:3:quaternions:R:4:c_diameter\[1\]:R:1:c_diameter\[2\]:R:1:c_diameter\[3\]:R:1 energy=-0.03057390979288721 pbc="F F F"
X       10.00000000      10.00000000      10.00000000      -0.32462747      -0.56563145       0.75549569       0.06248457       1.00000000       2.00000000       1.00000000
X       11.38888219      11.71332599      11.37213246      -0.52887431       0.74151719      -0.21466811      -0.35264972       1.00000000       2.00000000       1.00000000
2
Lattice="20.0 0.0 0.0 0.0 20.0 0.0 0.0 0.0 20.0" Properties=species:S:1:pos:R:3:quaternions:R:4:c_diameter\[1\]:R:1:c_diameter\[2\]:R:1:c_diameter\[3\]:R:1 energy=-0.01803796409398579 pbc="F F F"
X       10.00000000      10.00000000      10.00000000       0.01468835       0.65923281      -0.38175166      -0.64765887       1.00000000       2.00000000       1.00000000
X       11.95003693      11.66193253      11.63141587      -0.20056516      -0.55350266      -0.47212558       0.65612945       1.00000000       2.00000000       1.00000000
2
Lattice="20.0 0.0 0.0 0.0 20.0 0.0 0.0 0.0 20.0" Properties=species:S:1:pos:R:3:quaternions:R:4:c_diameter\[1\]:R:1:c_diameter\[2\]:R:1:c_diameter\[3\]:R:1 energy=-0.28002050954965707 pbc="F F F"
X       10.00000000      10.00000000      10.00000000      -0.50778225       0.29521296       0.72108247       0.36748682       1.00000000       2.00000000       1.00000000
X       11.31161878      11.33758548      11.16013774       0.51696909       0.83564395       0.16907898       0.07651437       1.00000000       2.00000000       1.00000000
2
Lattice="20.0 0.0 0.0 0.0 20.0 0.0 0.0 0.0 20.0" Properties=species:S:1:pos:R:3:quaternions:R:4:c_diameter\[1\]:R:1:c_diameter\[2\]:R:1:c_diameter\[3\]:R:1 energy=-0.08148463213915312 pbc="F F F"
X       10.00000000      10.00000000      10.00000000       0.27413033       0.70370878      -0.59773113       0.26900560       1.00000000       2.00000000       1.00000000
X       11.86683603      11.93548851      11.19302131      -0.46533939      -0.16564172      -0.40397011       0.76995469       1.00000000       2.00000000       1.00000000
2
Lattice="20.0 0.0 0.0 0.0 20.0 0.0 0.0 0.0 20.0" Properties=species:S:1:pos:R:3:quaternions:R:4:c_diameter\[1\]:R:1:c_diameter\[2\]:R:1:c_diameter\[3\]:R:1 energy=-0.09408497409963314 pbc="F F F"
X       10.00000000      10.00000000      10.00000000      -0.32211491      -0.48670375       0.81093480       0.04178761       1.00000000       2.00000000       1.00000000
X       11.06314225      11.39594378      11.76562020      -0.45712083      -0.46076129       0.04464373       0.75943829       1.00000000       2.00000000       1.00000000
2
Lattice="20.0 0.0 0.0 0.0 20.0 0.0 0.0 0.0 20.0" Properties=species:S:1:pos:R:3:quaternions:R:4:c_diameter\[1\]:R:1:c_diameter\[2\]:R:1:c_diameter\[3\]:R:1 energy=-0.05665512209035082 pbc="F F F"
X       10.00000000      10.00000000      10.00000000       0.45365027       0.55206169      -0.50535448       0.48378319       1.00000000       2.00000000       1.00000000
X       11.02564123      11.89186849      11.28958102      -0.52060758       0.84687475      -0.09965631      -0.04288965       1.00000000       2.00000000       1.00000000
2
Lattice="20.0 0.0 0.0 0.0 20.0 0.0 0.0 0.0 20.0" Properties=species:S:1:pos:R:3:quaternions:R:4:c_diameter\[1\]:R:1:c_diameter\[2\]:R:1:c_diameter\[3\]:R:1 energy=-0.22431743758410652 pbc="F F F"
X       10.00000000      10.00000000      10.00000000       0.04041867       0.39756066      -0.34924563       0.84754902       1.00000000       2.00000000       1.00000000
X       11.30864304      11.14113952      11.45058932      -0.40815334       0.46727098       0.06574170       0.78150285       1.00000000       2.00000000       1.00000000
2
Lattice="20.0 0.0 0.0 0.0 20.0 0.0 0.0 0.0 20.0" Properties=species:S:1:pos:R:3:quaternions:R:4:c_diameter\[1\]:R:1:c_diameter\[2\]:R:1:c_diameter\[3\]:R:1 energy=-0.09117494250482007 pbc="F F F"
X       10.00000000      10.00000000      10.00000000       0.67344528      -0.00139993       0.00291841       0.73922999       1.00000000       2.00000000       1.00000000
X       11.83340089      11.58833838      11.13900840      -0.59707955      -0.40723494       0.29956226       0.62283077       1.00000000       2.00000000       1.00000000
2
Lattice="20.0 0.0 0.0 0.0 20.0 0.0 0.0 0.0 20.0" Properties=species:S:1:pos:R:3:quaternions:R:4:c_diameter\[1\]:R:1:c_diameter\[2\]:R:1:c_diameter\[3\]:R:1 energy=-0.021217291083267135 pbc="F F F"
X       10.00000000      10.00000000      10.00000000       0.34193944       0.02249546       0.01511755       0.93933105       1.00000000       2.00000000       1.00000000
X       11.94138757      11.64620878      11.18322134      -0.24456796       0.91760693      -0.04072104       0.31068608       1.00000000       2.00000000       1.00000000
2
Lattice="20.0 0.0 0.0 0.0 20.0 0.0 0.0 0.0 20.0" Properties=species:S:1:pos:R:3:quaternions:R:4:c_diameter\[1\]:R:1:c_diameter\[2\]:R:1:c_diameter\[3\]:R:1 energy=-0.0640349458265073 pbc="F F F"
X       10.00000000      10.00000000      10.00000000      -0.19214675       0.10034114       0.89648215      -0.38643375       1.00000000       2.00000000       1.00000000
X       11.59636885      11.07281954      11.35394263      -0.18485187      -0.20786486       0.29476404       0.91418605       1.00000000       2.00000000       1.00000000
2
Lattice="20.0 0.0 0.0 0.0 20.0 0.0 0.0 0.0 20.0" Properties=species:S:1:pos:R:3:quaternions:R:4:c_diameter\[1\]:R:1:c_diameter\[2\]:R:1:c_diameter\[3\]:R:1 energy=-0.07372474495598193 pbc="F F F"
X       10.00000000      10.00000000      10.00000000       0.48432082       0.86868740      -0.10162064       0.02210837       1.00000000       2.00000000       1.00000000
X       11.81464924      11.89427255      11.20622045       0.32477932       0.93718670       0.02137546      -0.12546944       1.00000000       2.00000000       1.00000000
2
Lattice="20.0 0.0 0.0 0.0 20.0 0.0 0.0 0.0 20.0" Properties=species:S:1:pos:R:3:quaternions:R:4:c_diameter\[1\]:R:1:c_diameter\[2\]:R:1:c_diameter\[3\]:R:1 energy=-0.0368914925863629 pbc="F F F"
X       10.00000000      10.00000000      10.00000000      -0.22272284       0.75428725       0.58698638       0.19207362       1.00000000       2.00000000       1.00000000
X       11.23742331      11.93944481      11.19274283       0.91611693       0.26637323       0.14673884      -0.26123319       1.00000000       2.00000000       1.00000000
2