2
Lattice="20.0 0.0 0.0 0.0 20.0 0.0 0.0 0.0 20.0" Properties=species:S:1:pos:R:3:quaternions:R:4:c_diameter\[1\]:R:1:c_diameter\[2\]:R:1:c_diameter\[3\]:R:1 separation_distance=1.7803030303030303 energy=-0.2010123941363084 pbc="F F F"
X       10.00000000      10.00000000      10.00000000       1.00000000       0.00000000       0.00000000       0.00000000       1.00000000       2.00000000       1.00000000
X       11.78030303      10.00000000      10.00000000       0.00000000       0.00000000       0.70710678       0.70710678       1.00000000       2.00000000       1.00000000
2
Lattice="20.0 0.0 0.0 0.0 20.0 0.0 0.0 0.0 20.0" Properties=species:S:1:pos:R:3:quaternions:R:4:c_diameter\[1\]:R:1:c_diameter\[2\]:R:1:c_diameter\[3\]:R:1 separation_distance=1.79828588919498 energy=-1.4502464026673358 pbc="F F F"
X       10.00000000      10.00000000      10.00000000       1.00000000       0.00000000       0.00000000       0.00000000       1.00000000       2.00000000       1.00000000
X       11.79828589      10.00000000      10.00000000       0.00000000       0.00000000       0.70710678       0.70710678       1.00000000       2.00000000       1.00000000
2
Lattice="20.0 0.0 0.0 0.0 20.0 0.0 0.0 0.0 20.0" Properties=species:S:1:pos:R:3:quaternions:R:4:c_diameter\[1\]:R:1:c_diameter\[2\]:R:1:c_diameter\[3\]:R:1 separation_distance=1.81626874808693 energy=-2.044982812398075 pbc="F F F"
X       10.00000000      10.00000000      10.00000000       1.00000000       0.00000000       0.00000000       0.00000000       1.00000000       2.00000000       1.00000000
X       11.81626875      10.00000000      10.00000000       0.00000000       0.00000000       0.70710678       0.70710678       1.00000000       2.00000000       1.00000000
2
Lattice="20.0 0.0 0.0 0.0 20.0 0.0 0.0 0.0 20.0" Properties=species:S:1:pos:R:3:quaternions:R:4:c_diameter\[1\]:R:1:c_diameter\[2\]:R:1:c_diameter\[3\]:R:1 separation_distance=1.8342516069788797 energy=-2.273349349689611 pbc="F F F"
X       10.00000000      10.00000000      10.00000000       1.00000000       0.00000000       0.00000000       0.00000000       1.00000000       2.00000000       1.00000000
X       11.83425161      10.00000000      10.00000000       0.00000000       0.00000000       0.70710678       0.70710678       1.00000000       2.00000000       1.00000000
2
Lattice="20.0 0.0 0.0 0.0 20.0 0.0 0.0 0.0 20.0" Properties=species:S:1:pos:R:3:quaternions:R:4:c_diameter\[1\]:R:1:c_diameter\[2\]:R:1:c_diameter\[3\]:R:1 separation_distance=1.8522344658708294 energy=-2.2995453907503403 pbc="F F F"
X       10.00000000      10.00000000      10.00000000       1.00000000       0.00000000       0.00000000       0.00000000       1.00000000       2.00000000       1.00000000
X       11.85223447      10.00000000      10.00000000       0.00000000       0.00000000       0.70710678       0.70710678       1.00000000       2.00000000       1.00000000
2
Lattice="20.0 0.0 0.0 0.0 20.0 0.0 0.0 0.0 20.0" Properties=species:S:1:pos:R:3:quaternions:R:4:c_diameter\[1\]:R:1:c_diameter\[2\]:R:1:c_diameter\[3\]:R:1 separation_distance=1.8702173247627794 energy=-2.2178614141386968 pbc="F F F"
X       10.00000000      10.00000000      10.00000000       1.00000000       0.00000000       0.00000000       0.00000000       1.00000000       2.00000000       1.00000000
X       11.87021732      10.00000000      10.00000000       0.00000000       0.00000000       0.70710678       0.70710678       1.00000000       2.00000000       1.00000000
2
Lattice="20.0 0.0 0.0 0.0 20.0 0.0 0.0 0.0 20.0" Properties=species:S:1:pos:R:3:quaternions:R:4:c_diameter\[1\]:R:1:c_diameter\[2\]:R:1:c_diameter\[3\]:R:1 separation_distance=1.888200183654729 energy=-2.0825649698123345 pbc="F F F"
X       10.00000000      10.00000000      10.00000000       1.00000000       0.00000000       0.00000000       0.00000000       1.00000000       2.00000000       1.00000000
X       11.88820018      10.00000000      10.00000000       0.00000000       0.00000000       0.70710678       0.70710678       1.00000000       2.00000000       1.00000000
2
Lattice="20.0 0.0 0.0 0.0 20.0 0.0 0.0 0.0 20.0" Properties=species:S:1:pos:R:3:quaternions:R:4:c_diameter\[1\]:R:1:c_diameter\[2\]:R:1:c_diameter\[3\]:R:1 separation_distance=1.9061830425466788 energy=-1.9247394420508313 pbc="F F F"
X       10.00000000      10.00000000      10.00000000       1.00000000       0.00000000       0.00000000       0.00000000       1.00000000       2.00000000       1.00000000
X       11.90618304      10.00000000      10.00000000       0.00000000       0.00000000       0.70710678       0.70710678       1.00000000       2.00000000       1.00000000
2
Lattice="20.0 0.0 0.0 0.0 20.0 0.0 0.0 0.0 20.0" Properties=species:S:1:pos:R:3:quaternions:R:4:c_diameter\[1\]:R:1:c_diameter\[2\]:R:1:c_diameter\[3\]:R:1 separation_distance=1.9241659014386288 energy=-1.7619240321065093 pbc="F F F"
X       10.00000000      10.00000000      10.00000000       1.00000000       0.00000000       0.00000000       0.00000000       1.00000000       2.00000000       1.00000000
X       11.92416590      10.00000000      10.00000000       0.00000000       0.00000000       0.70710678       0.70710678       1.00000000       2.00000000       1.00000000
2
Lattice="20.0 0.0 0.0 0.0 20.0 0.0 0.0 0.0 20.0" Properties=species:S:1:pos:R:3:quaternions:R:4:c_diameter\[1\]:R:1:c_diameter\[2\]:R:1:c_diameter\[3\]:R:1 separation_distance=1.9421487603305785 energy=-1.6037083497783207 pbc="F F F"
X       10.00000000      10.00000000      10.00000000       1.00000000       0.00000000       0.00000000       0.00000000       1.00000000       2.00000000       1.00000000
X       11.94214876      10.00000000      10.00000000       0.00000000       0.00000000       0.70710678       0.70710678       1.00000000       2.00000000       1.00000000
2
Lattice="20.0 0.0 0.0 0.0 20.0 0.0 0.0 0.0 20.0" Properties=species:S:1:pos:R:3:quaternions:R:4:c_diameter\[1\]:R:1:c_diameter\[2\]:R:1:c_diameter\[3\]:R:1 separation_distance=1.9601316192225282 energy=-1.455016099763873 pbc="F F F"
X       10.00000000      10.00000000      10.00000000       1.00000000       0.00000000       0.00000000       0.00000000       1.00000000       2.00000000       1.00000000
X       11.96013162      10.00000000      10.00000000       0.00000000       0.00000000       0.70710678       0.70710678       1.00000000       2.00000000       1.00000000
2
Lattice="20.0 0.0 0.0 0.0 20.0 0.0 0.0 0.0 20.0" Properties=species:S:1:pos:R:3:quaternions:R:4:c_diameter\[1\]:R:1:c_diameter\[2\]:R:1:c_diameter\[3\]:R:1 separation_distance=1.9781144781144782 energy=-1.3180493706786305 pbc="F F F"
X       10.00000000      10.00000000      10.00000000       1.00000000       0.00000000       0.00000000       0.00000000       1.00000000       2.00000000       1.00000000
X       11.97811448      10.00000000      10.00000000       0.00000000       0.00000000       0.70710678       0.70710678       1.00000000       2.00000000       1.00000000
2
Lattice="20.0 0.0 0.0 0.0 20.0 0.0 0.0 0.0 20.0" Properties=species:S:1:pos:R:3:quaternions:R:4:c_diameter\[1\]:R:1:c_diameter\[2\]:R:1:c_diameter\[3\]:R:1 separation_distance=1.9960973370064279 energy=-1.1934467208856054 pbc="F F F"
X       10.00000000      10.00000000      10.00000000       1.00000000       0.00000000       0.00000000       0.00000000       1.00000000       2.00000000       1.00000000
X       11.99609734      10.00000000      10.00000000       0.00000000       0.00000000       0.70710678       0.70710678       1.00000000       2.00000000       1.00000000
2
Lattice="20.0 0.0 0.0 0.0 20.0 0.0 0.0 0.0 20.0" Properties=species:S:1:pos:R:3:quaternions:R:4:c_diameter\[1\]:R:1:c_diameter\[2\]:R:1:c_diameter\[3\]:R:1 separation_distance=2.014080195898378 energy=-1.0809747819051583 pbc="F F F"
X       10.00000000      10.00000000      10.00000000       1.00000000       0.00000000       0.00000000       0.00000000       1.00000000       2.00000000       1.00000000
X       12.01408020      10.00000000      10.00000000       0.00000000       0.00000000       0.70710678       0.70710678       1.00000000       2.00000000       1.00000000
2
Lattice="20.0 0.0 0.0 0.0 20.0 0.0 0.0 0.0 20.0" Properties=species:S:1:pos:R:3:quaternions:R:4:c_diameter\[1\]:R:1:c_diameter\[2\]:R:1:c_diameter\[3\]:R:1 separation_distance=2.0320630547903273 energy=-0.9799406428676244 pbc="F F F"
X       10.00000000      10.00000000      10.00000000       1.00000000       0.00000000       0.00000000       0.00000000       1.00000000       2.00000000       1.00000000
X       12.03206305      10.00000000      10.00000000       0.00000000       0.00000000       0.70710678       0.70710678       1.00000000       2.00000000       1.00000000
2
Lattice="20.0 0.0 0.0 0.0 20.0 0.0 0.0 0.0 20.0" Properties=species:S:1:pos:R:3:quaternions:R:4:c_diameter\[1\]:R:1:c_diameter\[2\]:R:1:c_diameter\[3\]:R:1 separation_distance=2.0500459136822773 energy=-0.8894359994434139 pbc="F F F"
X       10.00000000      10.00000000      10.00000000       1.00000000       0.00000000       0.00000000       0.00000000       1.00000000       2.00000000       1.00000000
X       12.05004591      10.00000000      10.00000000       0.00000000       0.00000000       0.70710678       0.70710678       1.00000000       2.00000000       1.00000000
2
Lattice="20.0 0.0 0.0 0.0 20.0 0.0 0.0 0.0 20.0" Properties=species:S:1:pos:R:3:quaternions:R:4:c_diameter\[1\]:R:1:c_diameter\[2\]:R:1:c_diameter\[3\]:R:1 separation_distance=2.0680287725742272 energy=-0.8084795198454195 pbc="F F F"
X       10.00000000      10.00000000      10.00000000       1.00000000       0.00000000       0.00000000       0.00000000       1.00000000       2.00000000       1.00000000
X       12.06802877      10.00000000      10.00000000       0.00000000       0.00000000       0.70710678       0.70710678       1.00000000       2.00000000       1.00000000
2
Lattice="20.0 0.0 0.0 0.0 20.0 0.0 0.0 0.0 20.0" Properties=species:S:1:pos:R:3:quaternions:R:4:c_diameter\[1\]:R:1:c_diameter\[2\]:R:1:c_diameter\[3\]:R:1 separation_distance=2.0860116314661767 energy=-0.7360975619800387 pbc="F F F"
X       10.00000000      10.00000000      10.00000000       1.00000000       0.00000000       0.00000000       0.00000000       1.00000000       2.00000000       1.00000000
X       12.08601163      10.00000000      10.00000000       0.00000000       0.00000000       0.70710678       0.70710678       1.00000000       2.00000000       1.00000000
2
Lattice="20.0 0.0 0.0 0.0 20.0 0.0 0.0 0.0 20.0" Properties=species:S:1:pos:R:3:quaternions:R:4:c_diameter\[1\]:R:1:c_diameter\[2\]:R:1:c_diameter\[3\]:R:1 separation_distance=2.1039944903581267 energy=-0.6713676485005748 pbc="F F F"
X       10.00000000      10.00000000      10.00000000       1.00000000       0.00000000       0.00000000       0.00000000       1.00000000       2.00000000       1.00000000
X       12.10399449      10.00000000      10.00000000       0.00000000       0.00000000       0.70710678       0.70710678       1.00000000       2.00000000       1.00000000
2
Lattice="20.0 0.0 0.0 0.0 20.0 0.0 0.0 0.0 20.0" Properties=species:S:1:pos:R:3:quaternions:R:4:c_diameter\[1\]:R:1:c_diameter\[2\]:R:1:c_diameter\[3\]:R:1 separation_distance=2.1219773492500766 energy=-0.613439616231746 pbc="F F F"
X       10.00000000      10.00000000      10.00000000       1.00000000       0.00000000       0.00000000       0.00000000       1.00000000       2.00000000       1.00000000
X       12.12197735      10.00000000      10.00000000       0.00000000       0.00000000       0.70710678       0.70710678       1.00000000       2.00000000       1.00000000
2
Lattice="20.0 0.0 0.0 0.0 20.0 0.0 0.0 0.0 20.0" Properties=species:S:1:pos:R:3:quaternions:R:4:c_diameter\[1\]:R:1:c_diameter\[2\]:R:1:c_diameter\[3\]:R:1 separation_distance=2.139960208142026 energy=-0.5615435813794689 pbc="F F F"
X       10.00000000      10.00000000      10.00000000       1.00000000       0.00000000       0.00000000       0.00000000       1.00000000       2.00000000       1.00000000
X       12.13996021      10.00000000      10.00000000       0.00000000       0.00000000       0.70710678       0.70710678       1.00000000       2.00000000       1.00000000
2
Lattice="20.0 0.0 0.0 0.0 20.0 0.0 0.0 0.0 20.0" Properties=species:S:1:pos:R:3:quaternions:R:4:c_diameter\[1\]:R:1:c_diameter\[2\]:R:1:c_diameter\[3\]:R:1 separation_distance=2.157943067033976 energy=-0.5149903230002146 pbc="F F F"
X       10.00000000      10.00000000      10.00000000       1.00000000       0.00000000       0.00000000       0.00000000       1.00000000       2.00000000       1.00000000
X       12.15794307      10.00000000      10.00000000       0.00000000       0.00000000       0.70710678       0.70710678       1.00000000       2.00000000       1.00000000
2
Lattice="20.0 0.0 0.0 0.0 20.0 0.0 0.0 0.0 20.0" Properties=species:S:1:pos:R:3:quaternions:R:4:c_diameter\[1\]:R:1:c_diameter\[2\]:R:1:c_diameter\[3\]:R:1 separation_distance=2.175925925925926 energy=-0.4731675066673083 pbc="F F F"
X       10.00000000      10.00000000      10.00000000       1.00000000       0.00000000       0.00000000       0.00000000       1.00000000       2.00000000       1.00000000
X       12.17592593      10.00000000      10.00000000       0.00000000       0.00000000       0.70710678       0.70710678       1.00000000       2.00000000       1.00000000
2
Lattice="20.0 0.0 0.0 0.0 20.0 0.0 0.0 0.0 20.0" Properties=species:S:1:pos:R:3:quaternions:R:4:c_diameter\[1\]:R:1:c_diameter\[2\]:R:1:c_diameter\[3\]:R:1 separation_distance=2.1939087848178755 energy=-0.435533821697716 pbc="F F F"
X       10.00000000      10.00000000      10.00000000       1.00000000       0.00000000       0.00000000       0.00000000       1.00000000       2.00000000       1.00000000
X       12.19390878      10.00000000      10.00000000       0.00000000       0.00000000       0.70710678       0.70710678       1.00000000       2.00000000       1.00000000
2
Lattice="20.0 0.0 0.0 0.0 20.0 0.0 0.0 0.0 20.0" Properties=species:S:1:pos:R:3:quaternions:R:4:c_diameter\[1\]:R:1:c_diameter\[2\]:R:1:c_diameter\[3\]:R:1 separation_distance=2.2118916437098255 energy=-0.40161226984159226 pbc="F F F"
X       10.00000000      10.00000000      10.00000000       1.00000000       0.00000000       0.00000000       0.00000000       1.00000000       2.00000000       1.00000000
X       12.21189164      10.00000000      10.00000000       0.00000000       0.00000000       0.70710678       0.70710678       1.00000000       2.00000000       1.00000000
2
Lattice="20.0 0.0 0.0 0.0 20.0 0.0 0.0 0.0 20.0" Properties=species:S:1:pos:R:3:quaternions:R:4:c_diameter\[1\]:R:1:c_diameter\[2\]:R:1:c_diameter\[3\]:R:1 separation_distance=2.2298745026017754 energy=-0.3709833261558825 pbc="F F F"
X       10.00000000      10.00000000      10.00000000       1.00000000       0.00000000       0.00000000       0.00000000       1.00000000       2.00000000       1.00000000
X       12.22987450      10.00000000      10.00000000       0.00000000       0.00000000       0.70710678       0.70710678       1.00000000       2.00000000       1.00000000
2
Lattice="20.0 0.0 0.0 0.0 20.0 0.0 0.0 0.0 20.0" Properties=species:S:1:pos:R:3:quaternions:R:4:c_diameter\[1\]:R:1:c_diameter\[2\]:R:1:c_diameter\[3\]:R:1 separation_distance=2.247857361493725 energy=-0.3432783738891291 pbc="F F F"
X       10.00000000      10.00000000      10.00000000       1.00000000       0.00000000       0.00000000       0.00000000       1.00000000       2.00000000       1.00000000
X       12.24785736      10.00000000      10.00000000       0.00000000       0.00000000       0.70710678       0.70710678       1.00000000       2.00000000       1.00000000
2
Lattice="20.0 0.0 0.0 0.0 20.0 0.0 0.0 0.0 20.0" Properties=species:S:1:pos:R:3:quaternions:R:4:c_diameter\[1\]:R:1:c_diameter\[2\]:R:1:c_diameter\[3\]:R:1 separation_distance=2.265840220385675 energy=-0.3181736201843834 pbc="F F F"
X       10.00000000      10.00000000      10.00000000       1.00000000       0.00000000       0.00000000       0.00000000       1.00000000       2.00000000       1.00000000
X       12.26584022      10.00000000      10.00000000       0.00000000       0.00000000       0.70710678       0.70710678       1.00000000       2.00000000       1.00000000
2
Lattice="20.0 0.0 0.0 0.0 20.0 0.0 0.0 0.0 20.0" Properties=species:S:1:pos:R:3:quaternions:R:4:c_diameter\[1\]:R:1:c_diameter\[2\]:R:1:c_diameter\[3\]:R:1 separation_distance=2.2838230792776244 energy=-0.2953845818432174 pbc="F F F"
X       10.00000000      10.00000000      10.00000000       1.00000000       0.00000000       0.00000000       0.00000000       1.00000000       2.00000000       1.00000000
X       12.28382308      10.00000000      10.00000000       0.00000000       0.00000000       0.70710678       0.70710678       1.00000000       2.00000000       1.00000000
2
Lattice="20.0 0.0 0.0 0.0 20.0 0.0 0.0 0.0 20.0" Properties=species:S:1:pos:R:3:quaternions:R:4:c_diameter\[1\]:R:1:c_diameter\[2\]:R:1:c_diameter\[3\]:R:1 separation_distance=2.3018059381695744 energy=-0.2746611611947961 pbc="F F F"
X       10.00000000      10.00000000      10.00000000       1.00000000       0.00000000       0.00000000       0.00000000       1.00000000       2.00000000       1.00000000
X       12.30180594      10.00000000      10.00000000       0.00000000       0.00000000       0.70710678       0.70710678       1.00000000       2.00000000       1.00000000
2
Lattice="20.0 0.0 0.0 0.0 20.0 0.0 0.0 0.0 20.0" Properties=species:S:1:pos:R:3:quaternions:R:4:c_diameter\[1\]:R:1:c_diameter\[2\]:R:1:c_diameter\[3\]:R:1 separation_distance=2.3197887970615243 energy=-0.25578329298418406 pbc="F F F"
X       10.00000000      10.00000000      10.00000000       1.00000000       0.00000000       0.00000000       0.00000000       1.00000000       2.00000000       1.00000000
X       12.31978880      10.00000000      10.00000000       0.00000000       0.00000000       0.70710678       0.70710678       1.00000000       2.00000000       1.00000000
2
Lattice="20.0 0.0 0.0 0.0 20.0 0.0 0.0 0.0 20.0" Properties=species:S:1:pos:R:3:quaternions:R:4:c_diameter\[1\]:R:1:c_diameter\[2\]:R:1:c_diameter\[3\]:R:1 separation_distance=2.337771655953474 energy=-0.23855712260416934 pbc="F F F"
X       10.00000000      10.00000000      10.00000000       1.00000000       0.00000000       0.00000000       0.00000000       1.00000000       2.00000000       1.00000000
X       12.33777166      10.00000000      10.00000000       0.00000000       0.00000000       0.70710678       0.70710678       1.00000000       2.00000000       1.00000000
2
Lattice="20.0 0.0 0.0 0.0 20.0 0.0 0.0 0.0 20.0" Properties=species:S:1:pos:R:3:quaternions:R:4:c_diameter\[1\]:R:1:c_diameter\[2\]:R:1:c_diameter\[3\]:R:1 separation_distance=2.3557545148454238 energy=-0.22281166667759794 pbc="F F F"
X       10.00000000      10.00000000      10.00000000       1.00000000       0.00000000       0.00000000       0.00000000       1.00000000       2.00000000       1.00000000
X       12.35575451      10.00000000      10.00000000       0.00000000       0.00000000       0.70710678       0.70710678       1.00000000       2.00000000       1.00000000
2
Lattice="20.0 0.0 0.0 0.0 20.0 0.0 0.0 0.0 20.0" Properties=species:S:1:pos:R:3:quaternions:R:4:c_diameter\[1\]:R:1:c_diameter\[2\]:R:1:c_diameter\[3\]:R:1 separation_distance=2.3737373737373737 energy=-0.20839590438025551 pbc="F F F"
X       10.00000000      10.00000000      10.00000000       1.00000000       0.00000000       0.00000000       0.00000000       1.00000000       2.00000000       1.00000000
X       12.37373737      10.00000000      10.00000000       0.00000000       0.00000000       0.70710678       0.70710678       1.00000000       2.00000000       1.00000000
2
Lattice="20.0 0.0 0.0 0.0 20.0 0.0 0.0 0.0 20.0" Properties=species:S:1:pos:R:3:quaternions:R:4:c_diameter\[1\]:R:1:c_diameter\[2\]:R:1:c_diameter\[3\]:R:1 separation_distance=2.391720232629323 energy=-0.1951762491140972 pbc="F F F"
X       10.00000000      10.00000000      10.00000000       1.00000000       0.00000000       0.00000000       0.00000000       1.00000000       2.00000000       1.00000000
X       12.39172023      10.00000000      10.00000000       0.00000000       0.00000000       0.70710678       0.70710678       1.00000000       2.00000000       1.00000000
2
Lattice="20.0 0.0 0.0 0.0 20.0 0.0 0.0 0.0 20.0" Properties=species:S:1:pos:R:3:quaternions:R:4:c_diameter\[1\]:R:1:c_diameter\[2\]:R:1:c_diameter\[3\]:R:1 separation_distance=2.409703091521273 energy=-0.18303435341875396 pbc="F F F"
X       10.00000000      10.00000000      10.00000000       1.00000000       0.00000000       0.00000000       0.00000000       1.00000000       2.00000000       1.00000000
X       12.40970309      10.00000000      10.00000000       0.00000000       0.00000000       0.70710678       0.70710678       1.00000000       2.00000000       1.00000000
2
Lattice="20.0 0.0 0.0 0.0 20.0 0.0 0.0 0.0 20.0" Properties=species:S:1:pos:R:3:quaternions:R:4:c_diameter\[1\]:R:1:c_diameter\[2\]:R:1:c_diameter\[3\]:R:1 separation_distance=2.427685950413223 energy=-0.17186520425590168 pbc="F F F"
X       10.00000000      10.00000000      10.00000000       1.00000000       0.00000000       0.00000000       0.00000000       1.00000000       2.00000000       1.00000000
X       12.42768595      10.00000000      10.00000000       0.00000000       0.00000000       0.70710678       0.70710678       1.00000000       2.00000000       1.00000000
2
Lattice="20.0 0.0 0.0 0.0 20.0 0.0 0.0 0.0 20.0" Properties=species:S:1:pos:R:3:quaternions:R:4:c_diameter\[1\]:R:1:c_diameter\[2\]:R:1:c_diameter\[3\]:R:1 separation_distance=2.4456688093051726 energy=-0.1615754703628755 pbc="F F F"
X       10.00000000      10.00000000      10.00000000       1.00000000       0.00000000       0.00000000       0.00000000       1.00000000       2.00000000       1.00000000
X       12.44566881      10.00000000      10.00000000       0.00000000       0.00000000       0.70710678       0.70710678       1.00000000       2.00000000       1.00000000
2
Lattice="20.0 0.0 0.0 0.0 20.0 0.0 0.0 0.0 20.0" Properties=species:S:1:pos:R:3:quaternions:R:4:c_diameter\[1\]:R:1:c_diameter\[2\]:R:1:c_diameter\[3\]:R:1 separation_distance=2.4636516681971226 energy=-0.15208206787039624 pbc="F F F"
X       10.00000000      10.00000000      10.00000000       1.00000000       0.00000000       0.00000000       0.00000000       1.00000000       2.00000000       1.00000000
X       12.46365167      10.00000000      10.00000000       0.00000000       0.00000000       0.70710678       0.70710678       1.00000000       2.00000000       1.00000000
2
Lattice="20.0 0.0 0.0 0.0 20.0 0.0 0.0 0.0 20.0" Properties=species:S:1:pos:R:3:quaternions:R:4:c_diameter\[1\]:R:1:c_diameter\[2\]:R:1:c_diameter\[3\]:R:1 separation_distance=2.4816345270890725 energy=-0.14331091460789774 pbc="F F F"
X       10.00000000      10.00000000      10.00000000       1.00000000       0.00000000       0.00000000       0.00000000       1.00000000       2.00000000       1.00000000
X       12.48163453      10.00000000      10.00000000       0.00000000       0.00000000       0.70710678       0.70710678       1.00000000       2.00000000       1.00000000
2
Lattice="20.0 0.0 0.0 0.0 20.0 0.0 0.0 0.0 20.0" Properties=species:S:1:pos:R:3:quaternions:R:4:c_diameter\[1\]:R:1:c_diameter\[2\]:R:1:c_diameter\[3\]:R:1 separation_distance=2.499617385981022 energy=-0.13519584737831186 pbc="F F F"
X       10.00000000      10.00000000      10.00000000       1.00000000       0.00000000       0.00000000       0.00000000       1.00000000       2.00000000       1.00000000
X       12.49961739      10.00000000      10.00000000       0.00000000       0.00000000       0.70710678       0.70710678       1.00000000       2.00000000       1.00000000
2
Lattice="20.0 0.0 0.0 0.0 20.0 0.0 0.0 0.0 20.0" Properties=species:S:1:pos:R:3:quaternions:R:4:c_diameter\[1\]:R:1:c_diameter\[2\]:R:1:c_diameter\[3\]:R:1 separation_distance=2.517600244872972 energy=-0.12767767993593881 pbc="F F F"
X       10.00000000      10.00000000      10.00000000       1.00000000       0.00000000       0.00000000       0.00000000       1.00000000       2.00000000       1.00000000
X       12.51760024      10.00000000      10.00000000       0.00000000       0.00000000       0.70710678       0.70710678       1.00000000       2.00000000       1.00000000
2
Lattice="20.0 0.0 0.0 0.0 20.0 0.0 0.0 0.0 20.0" Properties=species:S:1:pos:R:3:quaternions:R:4:c_diameter\[1\]:R:1:c_diameter\[2\]:R:1:c_diameter\[3\]:R:1 separation_distance=2.535583103764922 energy=-0.1207033824474414 pbc="F F F"
X       10.00000000      10.00000000      10.00000000       1.00000000       0.00000000       0.00000000       0.00000000       1.00000000       2.00000000       1.00000000
X       12.53558310      10.00000000      10.00000000       0.00000000       0.00000000       0.70710678       0.70710678       1.00000000       2.00000000       1.00000000
2
Lattice="20.0 0.0 0.0 0.0 20.0 0.0 0.0 0.0 20.0" Properties=species:S:1:pos:R:3:quaternions:R:4:c_diameter\[1\]:R:1:c_diameter\[2\]:R:1:c_diameter\[3\]:R:1 separation_distance=2.5535659626568714 energy=-0.11422536587903949 pbc="F F F"
X       10.00000000      10.00000000      10.00000000       1.00000000       0.00000000       0.00000000       0.00000000       1.00000000       2.00000000       1.00000000
X       12.55356596      10.00000000      10.00000000       0.00000000       0.00000000       0.70710678       0.70710678       1.00000000       2.00000000       1.00000000
2
Lattice="20.0 0.0 0.0 0.0 20.0 0.0 0.0 0.0 20.0" Properties=species:S:1:pos:R:3:quaternions:R:4:c_diameter\[1\]:R:1:c_diameter\[2\]:R:1:c_diameter\[3\]:R:1 separation_distance=2.5715488215488214 energy=-0.10820085706505138 pbc="F F F"
X       10.00000000      10.00000000      10.00000000       1.00000000       0.00000000       0.00000000       0.00000000       1.00000000       2.00000000       1.00000000
X       12.57154882      10.00000000      10.00000000       0.00000000       0.00000000       0.70710678       0.70710678       1.00000000       2.00000000       1.00000000
2
Lattice="20.0 0.0 0.0 0.0 20.0 0.0 0.0 0.0 20.0" Properties=species:S:1:pos:R:3:quaternions:R:4:c_diameter\[1\]:R:1:c_diameter\[2\]:R:1:c_diameter\[3\]:R:1 separation_distance=2.5895316804407713 energy=-0.10259135221051696 pbc="F F F"
X       10.00000000      10.00000000      10.00000000       1.00000000       0.00000000       0.00000000       0.00000000       1.00000000       2.00000000       1.00000000
X       12.58953168      10.00000000      10.00000000       0.00000000       0.00000000       0.70710678       0.70710678       1.00000000       2.00000000       1.00000000
2
Lattice="20.0 0.0 0.0 0.0 20.0 0.0 0.0 0.0 20.0" Properties=species:S:1:pos:R:3:quaternions:R:4:c_diameter\[1\]:R:1:c_diameter\[2\]:R:1:c_diameter\[3\]:R:1 separation_distance=2.607514539332721 energy=-0.09736213830052416 pbc="F F F"
X       10.00000000      10.00000000      10.00000000       1.00000000       0.00000000       0.00000000       0.00000000       1.00000000       2.00000000       1.00000000
X       12.60751454      10.00000000      10.00000000       0.00000000       0.00000000       0.70710678       0.70710678       1.00000000       2.00000000       1.00000000
2
Lattice="20.0 0.0 0.0 0.0 20.0 0.0 0.0 0.0 20.0" Properties=species:S:1:pos:R:3:quaternions:R:4:c_diameter\[1\]:R:1:c_diameter\[2\]:R:1:c_diameter\[3\]:R:1 separation_distance=2.6254973982246708 energy=-0.09248187336612863 pbc="F F F"
X       10.00000000      10.00000000      10.00000000       1.00000000       0.00000000       0.00000000       0.00000000       1.00000000       2.00000000       1.00000000
X       12.62549740      10.00000000      10.00000000       0.00000000       0.00000000       0.70710678       0.70710678       1.00000000       2.00000000       1.00000000
2
Lattice="20.0 0.0 0.0 0.0 20.0 0.0 0.0 0.0 20.0" Properties=species:S:1:pos:R:3:quaternions:R:4:c_diameter\[1\]:R:1:c_diameter\[2\]:R:1:c_diameter\[3\]:R:1 separation_distance=2.6434802571166207 energy=-0.08792221782358102 pbc="F F F"
X       10.00000000      10.00000000      10.00000000       1.00000000       0.00000000       0.00000000       0.00000000       1.00000000       2.00000000       1.00000000
X       12.64348026      10.00000000      10.00000000       0.00000000       0.00000000       0.70710678       0.70710678       1.00000000       2.00000000       1.00000000
2
Lattice="20.0 0.0 0.0 0.0 20.0 0.0 0.0 0.0 20.0" Properties=species:S:1:pos:R:3:quaternions:R:4:c_diameter\[1\]:R:1:c_diameter\[2\]:R:1:c_diameter\[3\]:R:1 separation_distance=2.66146311600857 energy=-0.08365751018888717 pbc="F F F"
X       10.00000000      10.00000000      10.00000000       1.00000000       0.00000000       0.00000000       0.00000000       1.00000000       2.00000000       1.00000000
X       12.66146312      10.00000000      10.00000000       0.00000000       0.00000000       0.70710678       0.70710678       1.00000000       2.00000000       1.00000000
2
Lattice="20.0 0.0 0.0 0.0 20.0 0.0 0.0 0.0 20.0" Properties=species:S:1:pos:R:3:quaternions:R:4:c_diameter\[1\]:R:1:c_diameter\[2\]:R:1:c_diameter\[3\]:R:1 separation_distance=2.67944597490052 energy=-0.07966448139908341 pbc="F F F"
X       10.00000000      10.00000000      10.00000000       1.00000000       0.00000000       0.00000000       0.00000000       1.00000000       2.00000000       1.00000000
X       12.67944597      10.00000000      10.00000000       0.00000000       0.00000000       0.70710678       0.70710678       1.00000000       2.00000000       1.00000000
2
Lattice="20.0 0.0 0.0 0.0 20.0 0.0 0.0 0.0 20.0" Properties=species:S:1:pos:R:3:quaternions:R:4:c_diameter\[1\]:R:1:c_diameter\[2\]:R:1:c_diameter\[3\]:R:1 separation_distance=2.69742883379247 energy=-0.07592200276733096 pbc="F F F"