2
Lattice="20.0 0.0 0.0 0.0 20.0 0.0 0.0 0.0 20.0" Properties=species:S:1:pos:R:3:quaternions:R:4:c_diameter\[1\]:R:1:c_diameter\[2\]:R:1:c_diameter\[3\]:R:1 separation_distance=1.4267676767676767 energy=-0.5127238467553719 pbc="F F F"
X       10.00000000      10.00000000      10.00000000       1.00000000       0.00000000       0.00000000       0.00000000       1.00000000       2.00000000       1.00000000
X       11.42676768      10.00000000      10.00000000       1.00000000       0.00000000       0.00000000       0.00000000       1.00000000       2.00000000       1.00000000
2
Lattice="20.0 0.0 0.0 0.0 20.0 0.0 0.0 0.0 20.0" Properties=species:S:1:pos:R:3:quaternions:R:4:c_diameter\[1\]:R:1:c_diameter\[2\]:R:1:c_diameter\[3\]:R:1 separation_distance=1.4411794714825017 energy=-0.8648238343923006 pbc="F F F"
X       10.00000000      10.00000000      10.00000000       1.00000000       0.00000000       0.00000000       0.00000000       1.00000000       2.00000000       1.00000000
X       11.44117947      10.00000000      10.00000000       1.00000000       0.00000000       0.00000000       0.00000000       1.00000000       2.00000000       1.00000000
2
Lattice="20.0 0.0 0.0 0.0 20.0 0.0 0.0 0.0 20.0" Properties=species:S:1:pos:R:3:quaternions:R:4:c_diameter\[1\]:R:1:c_diameter\[2\]:R:1:c_diameter\[3\]:R:1 separation_distance=1.4555912661973267 energy=-1.0537787379986105 pbc="F F F"
X       10.00000000      10.00000000      10.00000000       1.00000000       0.00000000       0.00000000       0.00000000       1.00000000       2.00000000       1.00000000
X       11.45559127      10.00000000      10.00000000       1.00000000       0.00000000       0.00000000       0.00000000       1.00000000       2.00000000       1.00000000
2
Lattice="20.0 0.0 0.0 0.0 20.0 0.0 0.0 0.0 20.0" Properties=species:S:1:pos:R:3:quaternions:R:4:c_diameter\[1\]:R:1:c_diameter\[2\]:R:1:c_diameter\[3\]:R:1 separation_distance=1.4700030609121517 energy=-1.139988286463985 pbc="F F F"
X       10.00000000      10.00000000      10.00000000       1.00000000       0.00000000       0.00000000       0.00000000       1.00000000       2.00000000       1.00000000
X       11.47000306      10.00000000      10.00000000       1.00000000       0.00000000       0.00000000       0.00000000       1.00000000       2.00000000       1.00000000
2
Lattice="20.0 0.0 0.0 0.0 20.0 0.0 0.0 0.0 20.0" Properties=species:S:1:pos:R:3:quaternions:R:4:c_diameter\[1\]:R:1:c_diameter\[2\]:R:1:c_diameter\[3\]:R:1 separation_distance=1.4844148556269767 energy=-1.1620531995937091 pbc="F F F"
X       10.00000000      10.00000000      10.00000000       1.00000000       0.00000000       0.00000000       0.00000000       1.00000000       2.00000000       1.00000000
X       11.48441486      10.00000000      10.00000000       1.00000000       0.00000000       0.00000000       0.00000000       1.00000000       2.00000000       1.00000000
2
Lattice="20.0 0.0 0.0 0.0 20.0 0.0 0.0 0.0 20.0" Properties=species:S:1:pos:R:3:quaternions:R:4:c_diameter\[1\]:R:1:c_diameter\[2\]:R:1:c_diameter\[3\]:R:1 separation_distance=1.4988266503418017 energy=-1.1447845274949533 pbc="F F F"
X       10.00000000      10.00000000      10.00000000       1.00000000       0.00000000       0.00000000       0.00000000       1.00000000       2.00000000       1.00000000
X       11.49882665      10.00000000      10.00000000       1.00000000       0.00000000       0.00000000       0.00000000       1.00000000       2.00000000       1.00000000
2
Lattice="20.0 0.0 0.0 0.0 20.0 0.0 0.0 0.0 20.0" Properties=species:S:1:pos:R:3:quaternions:R:4:c_diameter\[1\]:R:1:c_diameter\[2\]:R:1:c_diameter\[3\]:R:1 separation_distance=1.5132384450566267 energy=-1.104179398920991 pbc="F F F"
X       10.00000000      10.00000000      10.00000000       1.00000000       0.00000000       0.00000000       0.00000000       1.00000000       2.00000000       1.00000000
X       11.51323845      10.00000000      10.00000000       1.00000000       0.00000000       0.00000000       0.00000000       1.00000000       2.00000000       1.00000000
2
Lattice="20.0 0.0 0.0 0.0 20.0 0.0 0.0 0.0 20.0" Properties=species:S:1:pos:R:3:quaternions:R:4:c_diameter\[1\]:R:1:c_diameter\[2\]:R:1:c_diameter\[3\]:R:1 separation_distance=1.5276502397714518 energy=-1.0505515010447208 pbc="F F F"
X       10.00000000      10.00000000      10.00000000       1.00000000       0.00000000       0.00000000       0.00000000       1.00000000       2.00000000       1.00000000
X       11.52765024      10.00000000      10.00000000       1.00000000       0.00000000       0.00000000       0.00000000       1.00000000       2.00000000       1.00000000
2
Lattice="20.0 0.0 0.0 0.0 20.0 0.0 0.0 0.0 20.0" Properties=species:S:1:pos:R:3:quaternions:R:4:c_diameter\[1\]:R:1:c_diameter\[2\]:R:1:c_diameter\[3\]:R:1 separation_distance=1.5420620344862768 energy=-0.990523214193873 pbc="F F F"
X       10.00000000      10.00000000      10.00000000       1.00000000       0.00000000       0.00000000       0.00000000       1.00000000       2.00000000       1.00000000
X       11.54206203      10.00000000      10.00000000       1.00000000       0.00000000       0.00000000       0.00000000       1.00000000       2.00000000       1.00000000
2
Lattice="20.0 0.0 0.0 0.0 20.0 0.0 0.0 0.0 20.0" Properties=species:S:1:pos:R:3:quaternions:R:4:c_diameter\[1\]:R:1:c_diameter\[2\]:R:1:c_diameter\[3\]:R:1 separation_distance=1.5564738292011018 energy=-0.9283063453810372 pbc="F F F"
X       10.00000000      10.00000000      10.00000000       1.00000000       0.00000000       0.00000000       0.00000000       1.00000000       2.00000000       1.00000000
X       11.55647383      10.00000000      10.00000000       1.00000000       0.00000000       0.00000000       0.00000000       1.00000000       2.00000000       1.00000000
2
Lattice="20.0 0.0 0.0 0.0 20.0 0.0 0.0 0.0 20.0" Properties=species:S:1:pos:R:3:quaternions:R:4:c_diameter\[1\]:R:1:c_diameter\[2\]:R:1:c_diameter\[3\]:R:1 separation_distance=1.5708856239159268 energy=-0.8665329560521815 pbc="F F F"
X       10.00000000      10.00000000      10.00000000       1.00000000       0.00000000       0.00000000       0.00000000       1.00000000       2.00000000       1.00000000
X       11.57088562      10.00000000      10.00000000       1.00000000       0.00000000       0.00000000       0.00000000       1.00000000       2.00000000       1.00000000
2
Lattice="20.0 0.0 0.0 0.0 20.0 0.0 0.0 0.0 20.0" Properties=species:S:1:pos:R:3:quaternions:R:4:c_diameter\[1\]:R:1:c_diameter\[2\]:R:1:c_diameter\[3\]:R:1 separation_distance=1.5852974186307518 energy=-0.8067985464825442 pbc="F F F"
X       10.00000000      10.00000000      10.00000000       1.00000000       0.00000000       0.00000000       0.00000000       1.00000000       2.00000000       1.00000000
X       11.58529742      10.00000000      10.00000000       1.00000000       0.00000000       0.00000000       0.00000000       1.00000000       2.00000000       1.00000000
2
Lattice="20.0 0.0 0.0 0.0 20.0 0.0 0.0 0.0 20.0" Properties=species:S:1:pos:R:3:quaternions:R:4:c_diameter\[1\]:R:1:c_diameter\[2\]:R:1:c_diameter\[3\]:R:1 separation_distance=1.5997092133455768 energy=-0.7500195084503665 pbc="F F F"
X       10.00000000      10.00000000      10.00000000       1.00000000       0.00000000       0.00000000       0.00000000       1.00000000       2.00000000       1.00000000
X       11.59970921      10.00000000      10.00000000       1.00000000       0.00000000       0.00000000       0.00000000       1.00000000       2.00000000       1.00000000
2
Lattice="20.0 0.0 0.0 0.0 20.0 0.0 0.0 0.0 20.0" Properties=species:S:1:pos:R:3:quaternions:R:4:c_diameter\[1\]:R:1:c_diameter\[2\]:R:1:c_diameter\[3\]:R:1 separation_distance=1.6141210080604018 energy=-0.6966695744995128 pbc="F F F"
X       10.00000000      10.00000000      10.00000000       1.00000000       0.00000000       0.00000000       0.00000000       1.00000000       2.00000000       1.00000000
X       11.61412101      10.00000000      10.00000000       1.00000000       0.00000000       0.00000000       0.00000000       1.00000000       2.00000000       1.00000000
2
Lattice="20.0 0.0 0.0 0.0 20.0 0.0 0.0 0.0 20.0" Properties=species:S:1:pos:R:3:quaternions:R:4:c_diameter\[1\]:R:1:c_diameter\[2\]:R:1:c_diameter\[3\]:R:1 separation_distance=1.628532802775227 energy=-0.6469368031430568 pbc="F F F"
X       10.00000000      10.00000000      10.00000000       1.00000000       0.00000000       0.00000000       0.00000000       1.00000000       2.00000000       1.00000000
X       11.62853280      10.00000000      10.00000000       1.00000000       0.00000000       0.00000000       0.00000000       1.00000000       2.00000000       1.00000000
2
Lattice="20.0 0.0 0.0 0.0 20.0 0.0 0.0 0.0 20.0" Properties=species:S:1:pos:R:3:quaternions:R:4:c_diameter\[1\]:R:1:c_diameter\[2\]:R:1:c_diameter\[3\]:R:1 separation_distance=1.642944597490052 energy=-0.6008280130938335 pbc="F F F"
X       10.00000000      10.00000000      10.00000000       1.00000000       0.00000000       0.00000000       0.00000000       1.00000000       2.00000000       1.00000000
X       11.64294460      10.00000000      10.00000000       1.00000000       0.00000000       0.00000000       0.00000000       1.00000000       2.00000000       1.00000000
2
Lattice="20.0 0.0 0.0 0.0 20.0 0.0 0.0 0.0 20.0" Properties=species:S:1:pos:R:3:quaternions:R:4:c_diameter\[1\]:R:1:c_diameter\[2\]:R:1:c_diameter\[3\]:R:1 separation_distance=1.657356392204877 energy=-0.5582382562111571 pbc="F F F"
X       10.00000000      10.00000000      10.00000000       1.00000000       0.00000000       0.00000000       0.00000000       1.00000000       2.00000000       1.00000000
X       11.65735639      10.00000000      10.00000000       1.00000000       0.00000000       0.00000000       0.00000000       1.00000000       2.00000000       1.00000000
2
Lattice="20.0 0.0 0.0 0.0 20.0 0.0 0.0 0.0 20.0" Properties=species:S:1:pos:R:3:quaternions:R:4:c_diameter\[1\]:R:1:c_diameter\[2\]:R:1:c_diameter\[3\]:R:1 separation_distance=1.671768186919702 energy=-0.5189969169656888 pbc="F F F"
X       10.00000000      10.00000000      10.00000000       1.00000000       0.00000000       0.00000000       0.00000000       1.00000000       2.00000000       1.00000000
X       11.67176819      10.00000000      10.00000000       1.00000000       0.00000000       0.00000000       0.00000000       1.00000000       2.00000000       1.00000000
2
Lattice="20.0 0.0 0.0 0.0 20.0 0.0 0.0 0.0 20.0" Properties=species:S:1:pos:R:3:quaternions:R:4:c_diameter\[1\]:R:1:c_diameter\[2\]:R:1:c_diameter\[3\]:R:1 separation_distance=1.686179981634527 energy=-0.4828981270638493 pbc="F F F"
X       10.00000000      10.00000000      10.00000000       1.00000000       0.00000000       0.00000000       0.00000000       1.00000000       2.00000000       1.00000000
X       11.68617998      10.00000000      10.00000000       1.00000000       0.00000000       0.00000000       0.00000000       1.00000000       2.00000000       1.00000000
2
Lattice="20.0 0.0 0.0 0.0 20.0 0.0 0.0 0.0 20.0" Properties=species:S:1:pos:R:3:quaternions:R:4:c_diameter\[1\]:R:1:c_diameter\[2\]:R:1:c_diameter\[3\]:R:1 separation_distance=1.700591776349352 energy=-0.4497206292316676 pbc="F F F"
X       10.00000000      10.00000000      10.00000000       1.00000000       0.00000000       0.00000000       0.00000000       1.00000000       2.00000000       1.00000000
X       11.70059178      10.00000000      10.00000000       1.00000000       0.00000000       0.00000000       0.00000000       1.00000000       2.00000000       1.00000000
2
Lattice="20.0 0.0 0.0 0.0 20.0 0.0 0.0 0.0 20.0" Properties=species:S:1:pos:R:3:quaternions:R:4:c_diameter\[1\]:R:1:c_diameter\[2\]:R:1:c_diameter\[3\]:R:1 separation_distance=1.7150035710641771 energy=-0.41924053730763466 pbc="F F F"
X       10.00000000      10.00000000      10.00000000       1.00000000       0.00000000       0.00000000       0.00000000       1.00000000       2.00000000       1.00000000
X       11.71500357      10.00000000      10.00000000       1.00000000       0.00000000       0.00000000       0.00000000       1.00000000       2.00000000       1.00000000
2
Lattice="20.0 0.0 0.0 0.0 20.0 0.0 0.0 0.0 20.0" Properties=species:S:1:pos:R:3:quaternions:R:4:c_diameter\[1\]:R:1:c_diameter\[2\]:R:1:c_diameter\[3\]:R:1 separation_distance=1.7294153657790021 energy=-0.3912393179665482 pbc="F F F"
X       10.00000000      10.00000000      10.00000000       1.00000000       0.00000000       0.00000000       0.00000000       1.00000000       2.00000000       1.00000000
X       11.72941537      10.00000000      10.00000000       1.00000000       0.00000000       0.00000000       0.00000000       1.00000000       2.00000000       1.00000000
2
Lattice="20.0 0.0 0.0 0.0 20.0 0.0 0.0 0.0 20.0" Properties=species:S:1:pos:R:3:quaternions:R:4:c_diameter\[1\]:R:1:c_diameter\[2\]:R:1:c_diameter\[3\]:R:1 separation_distance=1.7438271604938271 energy=-0.3655085684764524 pbc="F F F"
X       10.00000000      10.00000000      10.00000000       1.00000000       0.00000000       0.00000000       0.00000000       1.00000000       2.00000000       1.00000000
X       11.74382716      10.00000000      10.00000000       1.00000000       0.00000000       0.00000000       0.00000000       1.00000000       2.00000000       1.00000000
2
Lattice="20.0 0.0 0.0 0.0 20.0 0.0 0.0 0.0 20.0" Properties=species:S:1:pos:R:3:quaternions:R:4:c_diameter\[1\]:R:1:c_diameter\[2\]:R:1:c_diameter\[3\]:R:1 separation_distance=1.7582389552086521 energy=-0.34185265931132386 pbc="F F F"
X       10.00000000      10.00000000      10.00000000       1.00000000       0.00000000       0.00000000       0.00000000       1.00000000       2.00000000       1.00000000
X       11.75823896      10.00000000      10.00000000       1.00000000       0.00000000       0.00000000       0.00000000       1.00000000       2.00000000       1.00000000
2
Lattice="20.0 0.0 0.0 0.0 20.0 0.0 0.0 0.0 20.0" Properties=species:S:1:pos:R:3:quaternions:R:4:c_diameter\[1\]:R:1:c_diameter\[2\]:R:1:c_diameter\[3\]:R:1 separation_distance=1.7726507499234772 energy=-0.32008996829318015 pbc="F F F"
X       10.00000000      10.00000000      10.00000000       1.00000000       0.00000000       0.00000000       0.00000000       1.00000000       2.00000000       1.00000000
X       11.77265075      10.00000000      10.00000000       1.00000000       0.00000000       0.00000000       0.00000000       1.00000000       2.00000000       1.00000000
2
Lattice="20.0 0.0 0.0 0.0 20.0 0.0 0.0 0.0 20.0" Properties=species:S:1:pos:R:3:quaternions:R:4:c_diameter\[1\]:R:1:c_diameter\[2\]:R:1:c_diameter\[3\]:R:1 separation_distance=1.7870625446383022 energy=-0.3000532003651381 pbc="F F F"
X       10.00000000      10.00000000      10.00000000       1.00000000       0.00000000       0.00000000       0.00000000       1.00000000       2.00000000       1.00000000
X       11.78706254      10.00000000      10.00000000       1.00000000       0.00000000       0.00000000       0.00000000       1.00000000       2.00000000       1.00000000
2
Lattice="20.0 0.0 0.0 0.0 20.0 0.0 0.0 0.0 20.0" Properties=species:S:1:pos:R:3:quaternions:R:4:c_diameter\[1\]:R:1:c_diameter\[2\]:R:1:c_diameter\[3\]:R:1 separation_distance=1.8014743393531272 energy=-0.28158912843163814 pbc="F F F"
X       10.00000000      10.00000000      10.00000000       1.00000000       0.00000000       0.00000000       0.00000000       1.00000000       2.00000000       1.00000000
X       11.80147434      10.00000000      10.00000000       1.00000000       0.00000000       0.00000000       0.00000000       1.00000000       2.00000000       1.00000000
2
Lattice="20.0 0.0 0.0 0.0 20.0 0.0 0.0 0.0 20.0" Properties=species:S:1:pos:R:3:quaternions:R:4:c_diameter\[1\]:R:1:c_diameter\[2\]:R:1:c_diameter\[3\]:R:1 separation_distance=1.8158861340679522 energy=-0.2645579821540066 pbc="F F F"
X       10.00000000      10.00000000      10.00000000       1.00000000       0.00000000       0.00000000       0.00000000       1.00000000       2.00000000       1.00000000
X       11.81588613      10.00000000      10.00000000       1.00000000       0.00000000       0.00000000       0.00000000       1.00000000       2.00000000       1.00000000
2
Lattice="20.0 0.0 0.0 0.0 20.0 0.0 0.0 0.0 20.0" Properties=species:S:1:pos:R:3:quaternions:R:4:c_diameter\[1\]:R:1:c_diameter\[2\]:R:1:c_diameter\[3\]:R:1 separation_distance=1.8302979287827772 energy=-0.24883263719029589 pbc="F F F"
X       10.00000000      10.00000000      10.00000000       1.00000000       0.00000000       0.00000000       0.00000000       1.00000000       2.00000000       1.00000000
X       11.83029793      10.00000000      10.00000000       1.00000000       0.00000000       0.00000000       0.00000000       1.00000000       2.00000000       1.00000000
2
Lattice="20.0 0.0 0.0 0.0 20.0 0.0 0.0 0.0 20.0" Properties=species:S:1:pos:R:3:quaternions:R:4:c_diameter\[1\]:R:1:c_diameter\[2\]:R:1:c_diameter\[3\]:R:1 separation_distance=1.8447097234976022 energy=-0.23429770633528205 pbc="F F F"
X       10.00000000      10.00000000      10.00000000       1.00000000       0.00000000       0.00000000       0.00000000       1.00000000       2.00000000       1.00000000
X       11.84470972      10.00000000      10.00000000       1.00000000       0.00000000       0.00000000       0.00000000       1.00000000       2.00000000       1.00000000
2
Lattice="20.0 0.0 0.0 0.0 20.0 0.0 0.0 0.0 20.0" Properties=species:S:1:pos:R:3:quaternions:R:4:c_diameter\[1\]:R:1:c_diameter\[2\]:R:1:c_diameter\[3\]:R:1 separation_distance=1.8591215182124272 energy=-0.22084859902858126 pbc="F F F"
X       10.00000000      10.00000000      10.00000000       1.00000000       0.00000000       0.00000000       0.00000000       1.00000000       2.00000000       1.00000000
X       11.85912152      10.00000000      10.00000000       1.00000000       0.00000000       0.00000000       0.00000000       1.00000000       2.00000000       1.00000000
2
Lattice="20.0 0.0 0.0 0.0 20.0 0.0 0.0 0.0 20.0" Properties=species:S:1:pos:R:3:quaternions:R:4:c_diameter\[1\]:R:1:c_diameter\[2\]:R:1:c_diameter\[3\]:R:1 separation_distance=1.8735333129272522 energy=-0.2083905917604334 pbc="F F F"
X       10.00000000      10.00000000      10.00000000       1.00000000       0.00000000       0.00000000       0.00000000       1.00000000       2.00000000       1.00000000
X       11.87353331      10.00000000      10.00000000       1.00000000       0.00000000       0.00000000       0.00000000       1.00000000       2.00000000       1.00000000
2
Lattice="20.0 0.0 0.0 0.0 20.0 0.0 0.0 0.0 20.0" Properties=species:S:1:pos:R:3:quaternions:R:4:c_diameter\[1\]:R:1:c_diameter\[2\]:R:1:c_diameter\[3\]:R:1 separation_distance=1.8879451076420772 energy=-0.19683793559156088 pbc="F F F"
X       10.00000000      10.00000000      10.00000000       1.00000000       0.00000000       0.00000000       0.00000000       1.00000000       2.00000000       1.00000000
X       11.88794511      10.00000000      10.00000000       1.00000000       0.00000000       0.00000000       0.00000000       1.00000000       2.00000000       1.00000000
2
Lattice="20.0 0.0 0.0 0.0 20.0 0.0 0.0 0.0 20.0" Properties=species:S:1:pos:R:3:quaternions:R:4:c_diameter\[1\]:R:1:c_diameter\[2\]:R:1:c_diameter\[3\]:R:1 separation_distance=1.9023569023569022 energy=-0.1861130159589905 pbc="F F F"
X       10.00000000      10.00000000      10.00000000       1.00000000       0.00000000       0.00000000       0.00000000       1.00000000       2.00000000       1.00000000
X       11.90235690      10.00000000      10.00000000       1.00000000       0.00000000       0.00000000       0.00000000       1.00000000       2.00000000       1.00000000
2
Lattice="20.0 0.0 0.0 0.0 20.0 0.0 0.0 0.0 20.0" Properties=species:S:1:pos:R:3:quaternions:R:4:c_diameter\[1\]:R:1:c_diameter\[2\]:R:1:c_diameter\[3\]:R:1 separation_distance=1.9167686970717273 energy=-0.17614557253641094 pbc="F F F"
X       10.00000000      10.00000000      10.00000000       1.00000000       0.00000000       0.00000000       0.00000000       1.00000000       2.00000000       1.00000000
X       11.91676870      10.00000000      10.00000000       1.00000000       0.00000000       0.00000000       0.00000000       1.00000000       2.00000000       1.00000000
2
Lattice="20.0 0.0 0.0 0.0 20.0 0.0 0.0 0.0 20.0" Properties=species:S:1:pos:R:3:quaternions:R:4:c_diameter\[1\]:R:1:c_diameter\[2\]:R:1:c_diameter\[3\]:R:1 separation_distance=1.9311804917865523 energy=-0.16687198202839607 pbc="F F F"
X       10.00000000      10.00000000      10.00000000       1.00000000       0.00000000       0.00000000       0.00000000       1.00000000       2.00000000       1.00000000
X       11.93118049      10.00000000      10.00000000       1.00000000       0.00000000       0.00000000       0.00000000       1.00000000       2.00000000       1.00000000
2
Lattice="20.0 0.0 0.0 0.0 20.0 0.0 0.0 0.0 20.0" Properties=species:S:1:pos:R:3:quaternions:R:4:c_diameter\[1\]:R:1:c_diameter\[2\]:R:1:c_diameter\[3\]:R:1 separation_distance=1.9455922865013773 energy=-0.15823460362023364 pbc="F F F"
X       10.00000000      10.00000000      10.00000000       1.00000000       0.00000000       0.00000000       0.00000000       1.00000000       2.00000000       1.00000000
X       11.94559229      10.00000000      10.00000000       1.00000000       0.00000000       0.00000000       0.00000000       1.00000000       2.00000000       1.00000000
2
Lattice="20.0 0.0 0.0 0.0 20.0 0.0 0.0 0.0 20.0" Properties=species:S:1:pos:R:3:quaternions:R:4:c_diameter\[1\]:R:1:c_diameter\[2\]:R:1:c_diameter\[3\]:R:1 separation_distance=1.9600040812162023 energy=-0.15018118483526902 pbc="F F F"
X       10.00000000      10.00000000      10.00000000       1.00000000       0.00000000       0.00000000       0.00000000       1.00000000       2.00000000       1.00000000
X       11.96000408      10.00000000      10.00000000       1.00000000       0.00000000       0.00000000       0.00000000       1.00000000       2.00000000       1.00000000
2
Lattice="20.0 0.0 0.0 0.0 20.0 0.0 0.0 0.0 20.0" Properties=species:S:1:pos:R:3:quaternions:R:4:c_diameter\[1\]:R:1:c_diameter\[2\]:R:1:c_diameter\[3\]:R:1 separation_distance=1.9744158759310273 energy=-0.14266432439114538 pbc="F F F"
X       10.00000000      10.00000000      10.00000000       1.00000000       0.00000000       0.00000000       0.00000000       1.00000000       2.00000000       1.00000000
X       11.97441588      10.00000000      10.00000000       1.00000000       0.00000000       0.00000000       0.00000000       1.00000000       2.00000000       1.00000000
2
Lattice="20.0 0.0 0.0 0.0 20.0 0.0 0.0 0.0 20.0" Properties=species:S:1:pos:R:3:quaternions:R:4:c_diameter\[1\]:R:1:c_diameter\[2\]:R:1:c_diameter\[3\]:R:1 separation_distance=1.9888276706458523 energy=-0.13564098803189392 pbc="F F F"
X       10.00000000      10.00000000      10.00000000       1.00000000       0.00000000       0.00000000       0.00000000       1.00000000       2.00000000       1.00000000
X       11.98882767      10.00000000      10.00000000       1.00000000       0.00000000       0.00000000       0.00000000       1.00000000       2.00000000       1.00000000
2
Lattice="20.0 0.0 0.0 0.0 20.0 0.0 0.0 0.0 20.0" Properties=species:S:1:pos:R:3:quaternions:R:4:c_diameter\[1\]:R:1:c_diameter\[2\]:R:1:c_diameter\[3\]:R:1 separation_distance=2.0032394653606773 energy=-0.1290720730616247 pbc="F F F"
X       10.00000000      10.00000000      10.00000000       1.00000000       0.00000000       0.00000000       0.00000000       1.00000000       2.00000000       1.00000000
X       12.00323947      10.00000000      10.00000000       1.00000000       0.00000000       0.00000000       0.00000000       1.00000000       2.00000000       1.00000000
2
Lattice="20.0 0.0 0.0 0.0 20.0 0.0 0.0 0.0 20.0" Properties=species:S:1:pos:R:3:quaternions:R:4:c_diameter\[1\]:R:1:c_diameter\[2\]:R:1:c_diameter\[3\]:R:1 separation_distance=2.0176512600755023 energy=-0.12292201729089205 pbc="F F F"
X       10.00000000      10.00000000      10.00000000       1.00000000       0.00000000       0.00000000       0.00000000       1.00000000       2.00000000       1.00000000
X       12.01765126      10.00000000      10.00000000       1.00000000       0.00000000       0.00000000       0.00000000       1.00000000       2.00000000       1.00000000
2
Lattice="20.0 0.0 0.0 0.0 20.0 0.0 0.0 0.0 20.0" Properties=species:S:1:pos:R:3:quaternions:R:4:c_diameter\[1\]:R:1:c_diameter\[2\]:R:1:c_diameter\[3\]:R:1 separation_distance=2.0320630547903273 energy=-0.11715844824129353 pbc="F F F"
X       10.00000000      10.00000000      10.00000000       1.00000000       0.00000000       0.00000000       0.00000000       1.00000000       2.00000000       1.00000000
X       12.03206305      10.00000000      10.00000000       1.00000000       0.00000000       0.00000000       0.00000000       1.00000000       2.00000000       1.00000000
2
Lattice="20.0 0.0 0.0 0.0 20.0 0.0 0.0 0.0 20.0" Properties=species:S:1:pos:R:3:quaternions:R:4:c_diameter\[1\]:R:1:c_diameter\[2\]:R:1:c_diameter\[3\]:R:1 separation_distance=2.0464748495051523 energy=-0.11175186867756084 pbc="F F F"
X       10.00000000      10.00000000      10.00000000       1.00000000       0.00000000       0.00000000       0.00000000       1.00000000       2.00000000       1.00000000
X       12.04647485      10.00000000      10.00000000       1.00000000       0.00000000       0.00000000       0.00000000       1.00000000       2.00000000       1.00000000
2
Lattice="20.0 0.0 0.0 0.0 20.0 0.0 0.0 0.0 20.0" Properties=species:S:1:pos:R:3:quaternions:R:4:c_diameter\[1\]:R:1:c_diameter\[2\]:R:1:c_diameter\[3\]:R:1 separation_distance=2.0608866442199774 energy=-0.10667537480874183 pbc="F F F"
X       10.00000000      10.00000000      10.00000000       1.00000000       0.00000000       0.00000000       0.00000000       1.00000000       2.00000000       1.00000000
X       12.06088664      10.00000000      10.00000000       1.00000000       0.00000000       0.00000000       0.00000000       1.00000000       2.00000000       1.00000000
2
Lattice="20.0 0.0 0.0 0.0 20.0 0.0 0.0 0.0 20.0" Properties=species:S:1:pos:R:3:quaternions:R:4:c_diameter\[1\]:R:1:c_diameter\[2\]:R:1:c_diameter\[3\]:R:1 separation_distance=2.0752984389348024 energy=-0.10190440379375641 pbc="F F F"
X       10.00000000      10.00000000      10.00000000       1.00000000       0.00000000       0.00000000       0.00000000       1.00000000       2.00000000       1.00000000
X       12.07529844      10.00000000      10.00000000       1.00000000       0.00000000       0.00000000       0.00000000       1.00000000       2.00000000       1.00000000
2
Lattice="20.0 0.0 0.0 0.0 20.0 0.0 0.0 0.0 20.0" Properties=species:S:1:pos:R:3:quaternions:R:4:c_diameter\[1\]:R:1:c_diameter\[2\]:R:1:c_diameter\[3\]:R:1 separation_distance=2.0897102336496274 energy=-0.09741650748385841 pbc="F F F"
X       10.00000000      10.00000000      10.00000000       1.00000000       0.00000000       0.00000000       0.00000000       1.00000000       2.00000000       1.00000000
X       12.08971023      10.00000000      10.00000000       1.00000000       0.00000000       0.00000000       0.00000000       1.00000000       2.00000000       1.00000000
2
Lattice="20.0 0.0 0.0 0.0 20.0 0.0 0.0 0.0 20.0" Properties=species:S:1:pos:R:3:quaternions:R:4:c_diameter\[1\]:R:1:c_diameter\[2\]:R:1:c_diameter\[3\]:R:1 separation_distance=2.1041220283644524 energy=-0.09319114962393066 pbc="F F F"
X       10.00000000      10.00000000      10.00000000       1.00000000       0.00000000       0.00000000       0.00000000       1.00000000       2.00000000       1.00000000
X       12.10412203      10.00000000      10.00000000       1.00000000       0.00000000       0.00000000       0.00000000       1.00000000       2.00000000       1.00000000
2
Lattice="20.0 0.0 0.0 0.0 20.0 0.0 0.0 0.0 20.0" Properties=species:S:1:pos:R:3:quaternions:R:4:c_diameter\[1\]:R:1:c_diameter\[2\]:R:1:c_diameter\[3\]:R:1 separation_distance=2.1185338230792774 energy=-0.08920952400921343 pbc="F F F"
X       10.00000000      10.00000000      10.00000000       1.00000000       0.00000000       0.00000000       0.00000000       1.00000000       2.00000000       1.00000000
X       12.11853382      10.00000000      10.00000000       1.00000000       0.00000000       0.00000000       0.00000000       1.00000000       2.00000000       1.00000000
2
Lattice="20.0 0.0 0.0 0.0 20.0 0.0 0.0 0.0 20.0" Properties=species:S:1:pos:R:3:quaternions:R:4:c_diameter\[1\]:R:1:c_diameter\[2\]:R:1:c_diameter\[3\]:R:1 separation_distance=2.1329456177941024 energy=-0.08545439135015905 pbc="F F F"
X       10.00000000      10.00000000      10.00000000       1.00000000       0.00000000       0.00000000       0.00000000       1.00000000       2.00000000       1.00000000
X       12.13294562      10.00000000      10.00000000       1.00000000       0.00000000       0.00000000       0.00000000       1.00000000       2.00000000       1.00000000
2
Lattice="20.0 0.0 0.0 0.0 20.0 0.0 0.0 0.0 20.0" Properties=species:S:1:pos:R:3:quaternions:R:4:c_diameter\[1\]:R:1:c_diameter\[2\]:R:1:c_diameter\[3\]:R:1 separation_distance=2.1473574125089274 energy=-0.0819099328338325 pbc="F F F"
X       10.00000000      10.00000000      10.00000000       1.00000000       0.00000000       0.00000000       0.00000000       1.00000000       2.00000000       1.00000000
X       12.14735741      10.00000000      10.00000000       1.00000000       0.00000000       0.00000000       0.00000000       1.00000000       2.00000000       1.00000000
2
Lattice="20.0 0.0 0.0 0.0 20.0 0.0 0.0 0.0 20.0" Properties=species:S:1:pos:R:3:quaternions:R:4:c_diameter\[1\]:R:1:c_diameter\[2\]:R:1:c_diameter\[3\]:R:1 separation_distance=2.1617692072237524 energy=-0.07856161858519152 pbc="F F F"