2
Lattice="20.0 0.0 0.0 0.0 20.0 0.0 0.0 0.0 20.0" Properties=species:S:1:pos:R:3:quaternions:R:4:c_diameter[1]:R:1:c_diameter[2]:R:1:c_diameter[3]:R:1 separation_distance=1.6035353535353536 energy=-0.642341085143331 pbc="F F F"
X       10.00000000      10.00000000      10.00000000       1.00000000       0.00000000       0.00000000       0.00000000       1.00000000       1.50000000       1.00000000
X       11.60353535      10.00000000      10.00000000       0.00000000       0.00000000       0.70710678       0.70710678       1.00000000       1.50000000       1.00000000
2
Lattice="20.0 0.0 0.0 0.0 20.0 0.0 0.0 0.0 20.0" Properties=species:S:1:pos:R:3:quaternions:R:4:c_diameter[1]:R:1:c_diameter[2]:R:1:c_diameter[3]:R:1 separation_distance=1.619732680338741 energy=-1.6415687878166887 pbc="F F F"
X       10.00000000      10.00000000      10.00000000       1.00000000       0.00000000       0.00000000       0.00000000       1.00000000       1.50000000       1.00000000
X       11.61973268      10.00000000      10.00000000       0.00000000       0.00000000       0.70710678       0.70710678       1.00000000       1.50000000       1.00000000
2
Lattice="20.0 0.0 0.0 0.0 20.0 0.0 0.0 0.0 20.0" Properties=species:S:1:pos:R:3:quaternions:R:4:c_diameter[1]:R:1:c_diameter[2]:R:1:c_diameter[3]:R:1 separation_distance=1.6359300071421283 energy=-2.147385484268606 pbc="F F F"
X       10.00000000      10.00000000      10.00000000       1.00000000       0.00000000       0.00000000       0.00000000       1.00000000       1.50000000       1.00000000
X       11.63593001      10.00000000      10.00000000       0.00000000       0.00000000       0.70710678       0.70710678       1.00000000       1.50000000       1.00000000
2
Lattice="20.0 0.0 0.0 0.0 20.0 0.0 0.0 0.0 20.0" Properties=species:S:1:pos:R:3:quaternions:R:4:c_diameter[1]:R:1:c_diameter[2]:R:1:c_diameter[3]:R:1 separation_distance=1.6521273339455158 energy=-2.360242859137548 pbc="F F F"
X       10.00000000      10.00000000      10.00000000       1.00000000       0.00000000       0.00000000       0.00000000       1.00000000       1.50000000       1.00000000
X       11.65212733      10.00000000      10.00000000       0.00000000       0.00000000       0.70710678       0.70710678       1.00000000       1.50000000       1.00000000
2
Lattice="20.0 0.0 0.0 0.0 20.0 0.0 0.0 0.0 20.0" Properties=species:S:1:pos:R:3:quaternions:R:4:c_diameter[1]:R:1:c_diameter[2]:R:1:c_diameter[3]:R:1 separation_distance=1.6683246607489033 energy=-2.4010931632647563 pbc="F F F"
X       10.00000000      10.00000000      10.00000000       1.00000000       0.00000000       0.00000000       0.00000000       1.00000000       1.50000000       1.00000000
X       11.66832466      10.00000000      10.00000000       0.00000000       0.00000000       0.70710678       0.70710678       1.00000000       1.50000000       1.00000000
2
Lattice="20.0 0.0 0.0 0.0 20.0 0.0 0.0 0.0 20.0" Properties=species:S:1:pos:R:3:quaternions:R:4:c_diameter[1]:R:1:c_diameter[2]:R:1:c_diameter[3]:R:1 separation_distance=1.6845219875522905 energy=-2.3434108990282256 pbc="F F F"
X       10.00000000      10.00000000      10.00000000       1.00000000       0.00000000       0.00000000       0.00000000       1.00000000       1.50000000       1.00000000
X       11.68452199      10.00000000      10.00000000       0.00000000       0.00000000       0.70710678       0.70710678       1.00000000       1.50000000       1.00000000
2
Lattice="20.0 0.0 0.0 0.0 20.0 0.0 0.0 0.0 20.0" Properties=species:S:1:pos:R:3:quaternions:R:4:c_diameter[1]:R:1:c_diameter[2]:R:1:c_diameter[3]:R:1 separation_distance=1.700719314355678 energy=-2.231959242108998 pbc="F F F"
X       10.00000000      10.00000000      10.00000000       1.00000000       0.00000000       0.00000000       0.00000000       1.00000000       1.50000000       1.00000000
X       11.70071931      10.00000000      10.00000000       0.00000000       0.00000000       0.70710678       0.70710678       1.00000000       1.50000000       1.00000000
2
Lattice="20.0 0.0 0.0 0.0 20.0 0.0 0.0 0.0 20.0" Properties=species:S:1:pos:R:3:quaternions:R:4:c_diameter[1]:R:1:c_diameter[2]:R:1:c_diameter[3]:R:1 separation_distance=1.7169166411590655 energy=-2.093958447114318 pbc="F F F"
X       10.00000000      10.00000000      10.00000000       1.00000000       0.00000000       0.00000000       0.00000000       1.00000000       1.50000000       1.00000000
X       11.71691664      10.00000000      10.00000000       0.00000000       0.00000000       0.70710678       0.70710678       1.00000000       1.50000000       1.00000000
2
Lattice="20.0 0.0 0.0 0.0 20.0 0.0 0.0 0.0 20.0" Properties=species:S:1:pos:R:3:quaternions:R:4:c_diameter[1]:R:1:c_diameter[2]:R:1:c_diameter[3]:R:1 separation_distance=1.7331139679624528 energy=-1.945823823997619 pbc="F F F"
X       10.00000000      10.00000000      10.00000000       1.00000000       0.00000000       0.00000000       0.00000000       1.00000000       1.50000000       1.00000000
X       11.73311397      10.00000000      10.00000000       0.00000000       0.00000000       0.70710678       0.70710678       1.00000000       1.50000000       1.00000000
2
Lattice="20.0 0.0 0.0 0.0 20.0 0.0 0.0 0.0 20.0" Properties=species:S:1:pos:R:3:quaternions:R:4:c_diameter[1]:R:1:c_diameter[2]:R:1:c_diameter[3]:R:1 separation_distance=1.7493112947658402 energy=-1.7972797358850623 pbc="F F F"
X       10.00000000      10.00000000      10.00000000       1.00000000       0.00000000       0.00000000       0.00000000       1.00000000       1.50000000       1.00000000
X       11.74931129      10.00000000      10.00000000       0.00000000       0.00000000       0.70710678       0.70710678       1.00000000       1.50000000       1.00000000
2
Lattice="20.0 0.0 0.0 0.0 20.0 0.0 0.0 0.0 20.0" Properties=species:S:1:pos:R:3:quaternions:R:4:c_diameter[1]:R:1:c_diameter[2]:R:1:c_diameter[3]:R:1 separation_distance=1.7655086215692277 energy=-1.6538973905841217 pbc="F F F"
X       10.00000000      10.00000000      10.00000000       1.00000000       0.00000000       0.00000000       0.00000000       1.00000000       1.50000000       1.00000000
X       11.76550862      10.00000000      10.00000000       0.00000000       0.00000000       0.70710678       0.70710678       1.00000000       1.50000000       1.00000000
2
Lattice="20.0 0.0 0.0 0.0 20.0 0.0 0.0 0.0 20.0" Properties=species:S:1:pos:R:3:quaternions:R:4:c_diameter[1]:R:1:c_diameter[2]:R:1:c_diameter[3]:R:1 separation_distance=1.7817059483726152 energy=-1.5186736789663868 pbc="F F F"
X       10.00000000      10.00000000      10.00000000       1.00000000       0.00000000       0.00000000       0.00000000       1.00000000       1.50000000       1.00000000
X       11.78170595      10.00000000      10.00000000       0.00000000       0.00000000       0.70710678       0.70710678       1.00000000       1.50000000       1.00000000
2
Lattice="20.0 0.0 0.0 0.0 20.0 0.0 0.0 0.0 20.0" Properties=species:S:1:pos:R:3:quaternions:R:4:c_diameter[1]:R:1:c_diameter[2]:R:1:c_diameter[3]:R:1 separation_distance=1.7979032751760025 energy=-1.3930199214877865 pbc="F F F"
X       10.00000000      10.00000000      10.00000000       1.00000000       0.00000000       0.00000000       0.00000000       1.00000000       1.50000000       1.00000000
X       11.79790328      10.00000000      10.00000000       0.00000000       0.00000000       0.70710678       0.70710678       1.00000000       1.50000000       1.00000000
2
Lattice="20.0 0.0 0.0 0.0 20.0 0.0 0.0 0.0 20.0" Properties=species:S:1:pos:R:3:quaternions:R:4:c_diameter[1]:R:1:c_diameter[2]:R:1:c_diameter[3]:R:1 separation_distance=1.81410060197939 energy=-1.277383849929112 pbc="F F F"
X       10.00000000      10.00000000      10.00000000       1.00000000       0.00000000       0.00000000       0.00000000       1.00000000       1.50000000       1.00000000
X       11.81410060      10.00000000      10.00000000       0.00000000       0.00000000       0.70710678       0.70710678       1.00000000       1.50000000       1.00000000
2
Lattice="20.0 0.0 0.0 0.0 20.0 0.0 0.0 0.0 20.0" Properties=species:S:1:pos:R:3:quaternions:R:4:c_diameter[1]:R:1:c_diameter[2]:R:1:c_diameter[3]:R:1 separation_distance=1.8302979287827774 energy=-1.1716416584081513 pbc="F F F"
X       10.00000000      10.00000000      10.00000000       1.00000000       0.00000000       0.00000000       0.00000000       1.00000000       1.50000000       1.00000000
X       11.83029793      10.00000000      10.00000000       0.00000000       0.00000000       0.70710678       0.70710678       1.00000000       1.50000000       1.00000000
2
Lattice="20.0 0.0 0.0 0.0 20.0 0.0 0.0 0.0 20.0" Properties=species:S:1:pos:R:3:quaternions:R:4:c_diameter[1]:R:1:c_diameter[2]:R:1:c_diameter[3]:R:1 separation_distance=1.8464952555861647 energy=-1.0753448718136311 pbc="F F F"
X       10.00000000      10.00000000      10.00000000       1.00000000       0.00000000       0.00000000       0.00000000       1.00000000       1.50000000       1.00000000
X       11.84649526      10.00000000      10.00000000       0.00000000       0.00000000       0.70710678       0.70710678       1.00000000       1.50000000       1.00000000
2
Lattice="20.0 0.0 0.0 0.0 20.0 0.0 0.0 0.0 20.0" Properties=species:S:1:pos:R:3:quaternions:R:4:c_diameter[1]:R:1:c_diameter[2]:R:1:c_diameter[3]:R:1 separation_distance=1.8626925823895522 energy=-0.9878750301358944 pbc="F F F"
X       10.00000000      10.00000000      10.00000000       1.00000000       0.00000000       0.00000000       0.00000000       1.00000000       1.50000000       1.00000000
X       11.86269258      10.00000000      10.00000000       0.00000000       0.00000000       0.70710678       0.70710678       1.00000000       1.50000000       1.00000000
2
Lattice="20.0 0.0 0.0 0.0 20.0 0.0 0.0 0.0 20.0" Properties=species:S:1:pos:R:3:quaternions:R:4:c_diameter[1]:R:1:c_diameter[2]:R:1:c_diameter[3]:R:1 separation_distance=1.8788899091929396 energy=-0.9085396161708433 pbc="F F F"
X       10.00000000      10.00000000      10.00000000       1.00000000       0.00000000       0.00000000       0.00000000       1.00000000       1.50000000       1.00000000
X       11.87888991      10.00000000      10.00000000       0.00000000       0.00000000       0.70710678       0.70710678       1.00000000       1.50000000       1.00000000
2
Lattice="20.0 0.0 0.0 0.0 20.0 0.0 0.0 0.0 20.0" Properties=species:S:1:pos:R:3:quaternions:R:4:c_diameter[1]:R:1:c_diameter[2]:R:1:c_diameter[3]:R:1 separation_distance=1.8950872359963271 energy=-0.8366304662004369 pbc="F F F"
X       10.00000000      10.00000000      10.00000000       1.00000000       0.00000000       0.00000000       0.00000000       1.00000000       1.50000000       1.00000000
X       11.89508724      10.00000000      10.00000000       0.00000000       0.00000000       0.70710678       0.70710678       1.00000000       1.50000000       1.00000000
2
Lattice="20.0 0.0 0.0 0.0 20.0 0.0 0.0 0.0 20.0" Properties=species:S:1:pos:R:3:quaternions:R:4:c_diameter[1]:R:1:c_diameter[2]:R:1:c_diameter[3]:R:1 separation_distance=1.9112845627997144 energy=-0.7714582423970024 pbc="F F F"
X       10.00000000      10.00000000      10.00000000       1.00000000       0.00000000       0.00000000       0.00000000       1.00000000       1.50000000       1.00000000
X       11.91128456      10.00000000      10.00000000       0.00000000       0.00000000       0.70710678       0.70710678       1.00000000       1.50000000       1.00000000
2
Lattice="20.0 0.0 0.0 0.0 20.0 0.0 0.0 0.0 20.0" Properties=species:S:1:pos:R:3:quaternions:R:4:c_diameter[1]:R:1:c_diameter[2]:R:1:c_diameter[3]:R:1 separation_distance=1.9274818896031019 energy=-0.7123716899663495 pbc="F F F"
X       10.00000000      10.00000000      10.00000000       1.00000000       0.00000000       0.00000000       0.00000000       1.00000000       1.50000000       1.00000000
X       11.92748189      10.00000000      10.00000000       0.00000000       0.00000000       0.70710678       0.70710678       1.00000000       1.50000000       1.00000000
2
Lattice="20.0 0.0 0.0 0.0 20.0 0.0 0.0 0.0 20.0" Properties=species:S:1:pos:R:3:quaternions:R:4:c_diameter[1]:R:1:c_diameter[2]:R:1:c_diameter[3]:R:1 separation_distance=1.943679216406489 energy=-0.6587673014345888 pbc="F F F"
X       10.00000000      10.00000000      10.00000000       1.00000000       0.00000000       0.00000000       0.00000000       1.00000000       1.50000000       1.00000000
X       11.94367922      10.00000000      10.00000000       0.00000000       0.00000000       0.70710678       0.70710678       1.00000000       1.50000000       1.00000000
2
Lattice="20.0 0.0 0.0 0.0 20.0 0.0 0.0 0.0 20.0" Properties=species:S:1:pos:R:3:quaternions:R:4:c_diameter[1]:R:1:c_diameter[2]:R:1:c_diameter[3]:R:1 separation_distance=1.9598765432098766 energy=-0.6100930178540089 pbc="F F F"
X       10.00000000      10.00000000      10.00000000       1.00000000       0.00000000       0.00000000       0.00000000       1.00000000       1.50000000       1.00000000
X       11.95987654      10.00000000      10.00000000       0.00000000       0.00000000       0.70710678       0.70710678       1.00000000       1.50000000       1.00000000
2
Lattice="20.0 0.0 0.0 0.0 20.0 0.0 0.0 0.0 20.0" Properties=species:S:1:pos:R:3:quaternions:R:4:c_diameter[1]:R:1:c_diameter[2]:R:1:c_diameter[3]:R:1 separation_distance=1.976073870013264 energy=-0.565848309226967 pbc="F F F"
X       10.00000000      10.00000000      10.00000000       1.00000000       0.00000000       0.00000000       0.00000000       1.00000000       1.50000000       1.00000000
X       11.97607387      10.00000000      10.00000000       0.00000000       0.00000000       0.70710678       0.70710678       1.00000000       1.50000000       1.00000000
2
Lattice="20.0 0.0 0.0 0.0 20.0 0.0 0.0 0.0 20.0" Properties=species:S:1:pos:R:3:quaternions:R:4:c_diameter[1]:R:1:c_diameter[2]:R:1:c_diameter[3]:R:1 separation_distance=1.9922711968166515 energy=-0.5255821410506423 pbc="F F F"
X       10.00000000      10.00000000      10.00000000       1.00000000       0.00000000       0.00000000       0.00000000       1.00000000       1.50000000       1.00000000
X       11.99227120      10.00000000      10.00000000       0.00000000       0.00000000       0.70710678       0.70710678       1.00000000       1.50000000       1.00000000
2
Lattice="20.0 0.0 0.0 0.0 20.0 0.0 0.0 0.0 20.0" Properties=species:S:1:pos:R:3:quaternions:R:4:c_diameter[1]:R:1:c_diameter[2]:R:1:c_diameter[3]:R:1 separation_distance=2.008468523620039 energy=-0.4888897902157028 pbc="F F F"
X       10.00000000      10.00000000      10.00000000       1.00000000       0.00000000       0.00000000       0.00000000       1.00000000       1.50000000       1.00000000
X       12.00846852      10.00000000      10.00000000       0.00000000       0.00000000       0.70710678       0.70710678       1.00000000       1.50000000       1.00000000
2
Lattice="20.0 0.0 0.0 0.0 20.0 0.0 0.0 0.0 20.0" Properties=species:S:1:pos:R:3:quaternions:R:4:c_diameter[1]:R:1:c_diameter[2]:R:1:c_diameter[3]:R:1 separation_distance=2.0246658504234265 energy=-0.45540911914144294 pbc="F F F"
X       10.00000000      10.00000000      10.00000000       1.00000000       0.00000000       0.00000000       0.00000000       1.00000000       1.50000000       1.00000000
X       12.02466585      10.00000000      10.00000000       0.00000000       0.00000000       0.70710678       0.70710678       1.00000000       1.50000000       1.00000000
2
Lattice="20.0 0.0 0.0 0.0 20.0 0.0 0.0 0.0 20.0" Properties=species:S:1:pos:R:3:quaternions:R:4:c_diameter[1]:R:1:c_diameter[2]:R:1:c_diameter[3]:R:1 separation_distance=2.0408631772268135 energy=-0.4248166861270057 pbc="F F F"
X       10.00000000      10.00000000      10.00000000       1.00000000       0.00000000       0.00000000       0.00000000       1.00000000       1.50000000       1.00000000
X       12.04086318      10.00000000      10.00000000       0.00000000       0.00000000       0.70710678       0.70710678       1.00000000       1.50000000       1.00000000
2
Lattice="20.0 0.0 0.0 0.0 20.0 0.0 0.0 0.0 20.0" Properties=species:S:1:pos:R:3:quaternions:R:4:c_diameter[1]:R:1:c_diameter[2]:R:1:c_diameter[3]:R:1 separation_distance=2.057060504030201 energy=-0.3968239197955976 pbc="F F F"
X       10.00000000      10.00000000      10.00000000       1.00000000       0.00000000       0.00000000       0.00000000       1.00000000       1.50000000       1.00000000
X       12.05706050      10.00000000      10.00000000       0.00000000       0.00000000       0.70710678       0.70710678       1.00000000       1.50000000       1.00000000
2
Lattice="20.0 0.0 0.0 0.0 20.0 0.0 0.0 0.0 20.0" Properties=species:S:1:pos:R:3:quaternions:R:4:c_diameter[1]:R:1:c_diameter[2]:R:1:c_diameter[3]:R:1 separation_distance=2.0732578308335885 energy=-0.3711734884344113 pbc="F F F"
X       10.00000000      10.00000000      10.00000000       1.00000000       0.00000000       0.00000000       0.00000000       1.00000000       1.50000000       1.00000000
X       12.07325783      10.00000000      10.00000000       0.00000000       0.00000000       0.70710678       0.70710678       1.00000000       1.50000000       1.00000000
2
Lattice="20.0 0.0 0.0 0.0 20.0 0.0 0.0 0.0 20.0" Properties=species:S:1:pos:R:3:quaternions:R:4:c_diameter[1]:R:1:c_diameter[2]:R:1:c_diameter[3]:R:1 separation_distance=2.089455157636976 energy=-0.3476359328108603 pbc="F F F"
X       10.00000000      10.00000000      10.00000000       1.00000000       0.00000000       0.00000000       0.00000000       1.00000000       1.50000000       1.00000000
X       12.08945516      10.00000000      10.00000000       0.00000000       0.00000000       0.70710678       0.70710678       1.00000000       1.50000000       1.00000000
2
Lattice="20.0 0.0 0.0 0.0 20.0 0.0 0.0 0.0 20.0" Properties=species:S:1:pos:R:3:quaternions:R:4:c_diameter[1]:R:1:c_diameter[2]:R:1:c_diameter[3]:R:1 separation_distance=2.1056524844403635 energy=-0.3260065917283647 pbc="F F F"
X       10.00000000      10.00000000      10.00000000       1.00000000       0.00000000       0.00000000       0.00000000       1.00000000       1.50000000       1.00000000
X       12.10565248      10.00000000      10.00000000       0.00000000       0.00000000       0.70710678       0.70710678       1.00000000       1.50000000       1.00000000
2
Lattice="20.0 0.0 0.0 0.0 20.0 0.0 0.0 0.0 20.0" Properties=species:S:1:pos:R:3:quaternions:R:4:c_diameter[1]:R:1:c_diameter[2]:R:1:c_diameter[3]:R:1 separation_distance=2.1218498112437505 energy=-0.3061028252924371 pbc="F F F"
X       10.00000000      10.00000000      10.00000000       1.00000000       0.00000000       0.00000000       0.00000000       1.00000000       1.50000000       1.00000000
X       12.12184981      10.00000000      10.00000000       0.00000000       0.00000000       0.70710678       0.70710678       1.00000000       1.50000000       1.00000000
2
Lattice="20.0 0.0 0.0 0.0 20.0 0.0 0.0 0.0 20.0" Properties=species:S:1:pos:R:3:quaternions:R:4:c_diameter[1]:R:1:c_diameter[2]:R:1:c_diameter[3]:R:1 separation_distance=2.138047138047138 energy=-0.2877615263801827 pbc="F F F"
X       10.00000000      10.00000000      10.00000000       1.00000000       0.00000000       0.00000000       0.00000000       1.00000000       1.50000000       1.00000000
X       12.13804714      10.00000000      10.00000000       0.00000000       0.00000000       0.70710678       0.70710678       1.00000000       1.50000000       1.00000000
2
Lattice="20.0 0.0 0.0 0.0 20.0 0.0 0.0 0.0 20.0" Properties=species:S:1:pos:R:3:quaternions:R:4:c_diameter[1]:R:1:c_diameter[2]:R:1:c_diameter[3]:R:1 separation_distance=2.1542444648505255 energy=-0.27083690269411126 pbc="F F F"
X       10.00000000      10.00000000      10.00000000       1.00000000       0.00000000       0.00000000       0.00000000       1.00000000       1.50000000       1.00000000
X       12.15424446      10.00000000      10.00000000       0.00000000       0.00000000       0.70710678       0.70710678       1.00000000       1.50000000       1.00000000
2
Lattice="20.0 0.0 0.0 0.0 20.0 0.0 0.0 0.0 20.0" Properties=species:S:1:pos:R:3:quaternions:R:4:c_diameter[1]:R:1:c_diameter[2]:R:1:c_diameter[3]:R:1 separation_distance=2.170441791653913 energy=-0.25519850775022773 pbc="F F F"
X       10.00000000      10.00000000      10.00000000       1.00000000       0.00000000       0.00000000       0.00000000       1.00000000       1.50000000       1.00000000
X       12.17044179      10.00000000      10.00000000       0.00000000       0.00000000       0.70710678       0.70710678       1.00000000       1.50000000       1.00000000
2
Lattice="20.0 0.0 0.0 0.0 20.0 0.0 0.0 0.0 20.0" Properties=species:S:1:pos:R:3:quaternions:R:4:c_diameter[1]:R:1:c_diameter[2]:R:1:c_diameter[3]:R:1 separation_distance=2.1866391184573004 energy=-0.2407294976904869 pbc="F F F"
X       10.00000000      10.00000000      10.00000000       1.00000000       0.00000000       0.00000000       0.00000000       1.00000000       1.50000000       1.00000000
X       12.18663912      10.00000000      10.00000000       0.00000000       0.00000000       0.70710678       0.70710678       1.00000000       1.50000000       1.00000000
2
Lattice="20.0 0.0 0.0 0.0 20.0 0.0 0.0 0.0 20.0" Properties=species:S:1:pos:R:3:quaternions:R:4:c_diameter[1]:R:1:c_diameter[2]:R:1:c_diameter[3]:R:1 separation_distance=2.202836445260688 energy=-0.2273250909256939 pbc="F F F"
X       10.00000000      10.00000000      10.00000000       1.00000000       0.00000000       0.00000000       0.00000000       1.00000000       1.50000000       1.00000000
X       12.20283645      10.00000000      10.00000000       0.00000000       0.00000000       0.70710678       0.70710678       1.00000000       1.50000000       1.00000000
2
Lattice="20.0 0.0 0.0 0.0 20.0 0.0 0.0 0.0 20.0" Properties=species:S:1:pos:R:3:quaternions:R:4:c_diameter[1]:R:1:c_diameter[2]:R:1:c_diameter[3]:R:1 separation_distance=2.2190337720640754 energy=-0.21489120865475925 pbc="F F F"
X       10.00000000      10.00000000      10.00000000       1.00000000       0.00000000       0.00000000       0.00000000       1.00000000       1.50000000       1.00000000
X       12.21903377      10.00000000      10.00000000       0.00000000       0.00000000       0.70710678       0.70710678       1.00000000       1.50000000       1.00000000
2
Lattice="20.0 0.0 0.0 0.0 20.0 0.0 0.0 0.0 20.0" Properties=species:S:1:pos:R:3:quaternions:R:4:c_diameter[1]:R:1:c_diameter[2]:R:1:c_diameter[3]:R:1 separation_distance=2.2352310988674624 energy=-0.20334327584682105 pbc="F F F"
X       10.00000000      10.00000000      10.00000000       1.00000000       0.00000000       0.00000000       0.00000000       1.00000000       1.50000000       1.00000000
X       12.23523110      10.00000000      10.00000000       0.00000000       0.00000000       0.70710678       0.70710678       1.00000000       1.50000000       1.00000000
2
Lattice="20.0 0.0 0.0 0.0 20.0 0.0 0.0 0.0 20.0" Properties=species:S:1:pos:R:3:quaternions:R:4:c_diameter[1]:R:1:c_diameter[2]:R:1:c_diameter[3]:R:1 separation_distance=2.25142842567085 energy=-0.1926051640432379 pbc="F F F"
X       10.00000000      10.00000000      10.00000000       1.00000000       0.00000000       0.00000000       0.00000000       1.00000000       1.50000000       1.00000000
X       12.25142843      10.00000000      10.00000000       0.00000000       0.00000000       0.70710678       0.70710678       1.00000000       1.50000000       1.00000000
2
Lattice="20.0 0.0 0.0 0.0 20.0 0.0 0.0 0.0 20.0" Properties=species:S:1:pos:R:3:quaternions:R:4:c_diameter[1]:R:1:c_diameter[2]:R:1:c_diameter[3]:R:1 separation_distance=2.2676257524742374 energy=-0.182608259167244 pbc="F F F"
X       10.00000000      10.00000000      10.00000000       1.00000000       0.00000000       0.00000000       0.00000000       1.00000000       1.50000000       1.00000000
X       12.26762575      10.00000000      10.00000000       0.00000000       0.00000000       0.70710678       0.70710678       1.00000000       1.50000000       1.00000000
2
Lattice="20.0 0.0 0.0 0.0 20.0 0.0 0.0 0.0 20.0" Properties=species:S:1:pos:R:3:quaternions:R:4:c_diameter[1]:R:1:c_diameter[2]:R:1:c_diameter[3]:R:1 separation_distance=2.283823079277625 energy=-0.17329063931733327 pbc="F F F"
X       10.00000000      10.00000000      10.00000000       1.00000000       0.00000000       0.00000000       0.00000000       1.00000000       1.50000000       1.00000000
X       12.28382308      10.00000000      10.00000000       0.00000000       0.00000000       0.70710678       0.70710678       1.00000000       1.50000000       1.00000000
2
Lattice="20.0 0.0 0.0 0.0 20.0 0.0 0.0 0.0 20.0" Properties=species:S:1:pos:R:3:quaternions:R:4:c_diameter[1]:R:1:c_diameter[2]:R:1:c_diameter[3]:R:1 separation_distance=2.3000204060810123 energy=-0.16459634920731983 pbc="F F F"
X       10.00000000      10.00000000      10.00000000       1.00000000       0.00000000       0.00000000       0.00000000       1.00000000       1.50000000       1.00000000
X       12.30002041      10.00000000      10.00000000       0.00000000       0.00000000       0.70710678       0.70710678       1.00000000       1.50000000       1.00000000
2
Lattice="20.0 0.0 0.0 0.0 20.0 0.0 0.0 0.0 20.0" Properties=species:S:1:pos:R:3:quaternions:R:4:c_diameter[1]:R:1:c_diameter[2]:R:1:c_diameter[3]:R:1 separation_distance=2.3162177328843994 energy=-0.15647475947093567 pbc="F F F"
X       10.00000000      10.00000000      10.00000000       1.00000000       0.00000000       0.00000000       0.00000000       1.00000000       1.50000000       1.00000000
X       12.31621773      10.00000000      10.00000000       0.00000000       0.00000000       0.70710678       0.70710678       1.00000000       1.50000000       1.00000000
2
Lattice="20.0 0.0 0.0 0.0 20.0 0.0 0.0 0.0 20.0" Properties=species:S:1:pos:R:3:quaternions:R:4:c_diameter[1]:R:1:c_diameter[2]:R:1:c_diameter[3]:R:1 separation_distance=2.3324150596877873 energy=-0.14888000045945574 pbc="F F F"
X       10.00000000      10.00000000      10.00000000       1.00000000       0.00000000       0.00000000       0.00000000       1.00000000       1.50000000       1.00000000
X       12.33241506      10.00000000      10.00000000       0.00000000       0.00000000       0.70710678       0.70710678       1.00000000       1.50000000       1.00000000
2
Lattice="20.0 0.0 0.0 0.0 20.0 0.0 0.0 0.0 20.0" Properties=species:S:1:pos:R:3:quaternions:R:4:c_diameter[1]:R:1:c_diameter[2]:R:1:c_diameter[3]:R:1 separation_distance=2.3486123864911743 energy=-0.1417704614260383 pbc="F F F"
X       10.00000000      10.00000000      10.00000000       1.00000000       0.00000000       0.00000000       0.00000000       1.00000000       1.50000000       1.00000000
X       12.34861239      10.00000000      10.00000000       0.00000000       0.00000000       0.70710678       0.70710678       1.00000000       1.50000000       1.00000000
2
Lattice="20.0 0.0 0.0 0.0 20.0 0.0 0.0 0.0 20.0" Properties=species:S:1:pos:R:3:quaternions:R:4:c_diameter[1]:R:1:c_diameter[2]:R:1:c_diameter[3]:R:1 separation_distance=2.364809713294562 energy=-0.13510834711581016 pbc="F F F"
X       10.00000000      10.00000000      10.00000000       1.00000000       0.00000000       0.00000000       0.00000000       1.00000000       1.50000000       1.00000000
X       12.36480971      10.00000000      10.00000000       0.00000000       0.00000000       0.70710678       0.70710678       1.00000000       1.50000000       1.00000000
2
Lattice="20.0 0.0 0.0 0.0 20.0 0.0 0.0 0.0 20.0" Properties=species:S:1:pos:R:3:quaternions:R:4:c_diameter[1]:R:1:c_diameter[2]:R:1:c_diameter[3]:R:1 separation_distance=2.3810070400979493 energy=-0.1288592847755897 pbc="F F F"
X       10.00000000      10.00000000      10.00000000       1.00000000       0.00000000       0.00000000       0.00000000       1.00000000       1.50000000       1.00000000
X       12.38100704      10.00000000      10.00000000       0.00000000       0.00000000       0.70710678       0.70710678       1.00000000       1.50000000       1.00000000
2
Lattice="20.0 0.0 0.0 0.0 20.0 0.0 0.0 0.0 20.0" Properties=species:S:1:pos:R:3:quaternions:R:4:c_diameter[1]:R:1:c_diameter[2]:R:1:c_diameter[3]:R:1 separation_distance=2.3972043669013368 energy=-0.1229919754726058 pbc="F F F"
X       10.00000000      10.00000000      10.00000000       1.00000000       0.00000000       0.00000000       0.00000000       1.00000000       1.50000000       1.00000000
X       12.39720437      10.00000000      10.00000000       0.00000000       0.00000000       0.70710678       0.70710678       1.00000000       1.50000000       1.00000000
2
Lattice="20.0 0.0 0.0 0.0 20.0 0.0 0.0 0.0 20.0" Properties=species:S:1:pos:R:3:quaternions:R:4:c_diameter[1]:R:1:c_diameter[2]:R:1:c_diameter[3]:R:1 separation_distance=2.4134016937047242 energy=-0.11747788437944408 pbc="F F F"
X       10.00000000      10.00000000      10.00000000       1.00000000       0.00000000       0.00000000       0.00000000       1.00000000       1.50000000       1.00000000
X       12.41340169      10.00000000      10.00000000       0.00000000       0.00000000       0.70710678       0.70710678       1.00000000       1.50000000       1.00000000
2
Lattice="20.0 0.0 0.0 0.0 20.0 0.0 0.0 0.0 20.0" Properties=species:S:1:pos:R:3:quaternions:R:4:c_diameter[1]:R:1:c_diameter[2]:R:1:c_diameter[3]:R:1 separation_distance=2.4295990205081113 energy=-0.1122909653542367 pbc="F F F"
X       10.00000000      10.00000000      10.00000000       1.00000000       0.00000000       0.00000000       0.00000000       1.00000000       1.50000000       1.00000000
X       12.42959902      10.00000000      10.00000000       0.00000000       0.00000000       0.70710678       0.70710678       1.00000000       1.50000000       1.00000000
2