2
Lattice="20.0 0.0 0.0 0.0 20.0 0.0 0.0 0.0 20.0" Properties=species:S:1:pos:R:3:quaternions:R:4:c_diameter[1]:R:1:c_diameter[2]:R:1:c_diameter[3]:R:1 energy=-0.6578250020981206 pbc="F F F"
X       10.00000000      10.00000000      10.00000000       1.00000000       0.00000000       0.00000000       0.00000000       1.00000000       1.50000000       1.00000000
X       11.42676768      10.00000000      10.00000000       1.00000000       0.00000000       0.00000000       0.00000000       1.00000000       1.50000000       1.00000000
2
Lattice="20.0 0.0 0.0 0.0 20.0 0.0 0.0 0.0 20.0" Properties=species:S:1:pos:R:3:quaternions:R:4:c_diameter[1]:R:1:c_diameter[2]:R:1:c_diameter[3]:R:1 energy=-0.6578250020981206 pbc="F F F"
X       10.00000000      10.00000000      10.00000000       1.00000000       0.00000000       0.00000000       0.00000000       1.00000000       1.50000000       1.00000000
X       11.42676768      10.00000000      10.00000000       0.98480775       0.00000000       0.17364818       0.00000000       1.00000000       1.50000000       1.00000000
2
Lattice="20.0 0.0 0.0 0.0 20.0 0.0 0.0 0.0 20.0" Properties=species:S:1:pos:R:3:quaternions:R:4:c_diameter[1]:R:1:c_diameter[2]:R:1:c_diameter[3]:R:1 energy=-0.6578250020981206 pbc="F F F"
X       10.00000000      10.00000000      10.00000000       1.00000000       0.00000000       0.00000000       0.00000000       1.00000000       1.50000000       1.00000000
X       11.42676768      10.00000000      10.00000000       0.93969262       0.00000000       0.34202014       0.00000000       1.00000000       1.50000000       1.00000000
2
Lattice="20.0 0.0 0.0 0.0 20.0 0.0 0.0 0.0 20.0" Properties=species:S:1:pos:R:3:quaternions:R:4:c_diameter[1]:R:1:c_diameter[2]:R:1:c_diameter[3]:R:1 energy=-0.6578250020981206 pbc="F F F"
X       10.00000000      10.00000000      10.00000000       1.00000000       0.00000000       0.00000000       0.00000000       1.00000000       1.50000000       1.00000000
X       11.42676768      10.00000000      10.00000000       0.86602540       0.00000000       0.50000000       0.00000000       1.00000000       1.50000000       1.00000000
2
Lattice="20.0 0.0 0.0 0.0 20.0 0.0 0.0 0.0 20.0" Properties=species:S:1:pos:R:3:quaternions:R:4:c_diameter[1]:R:1:c_diameter[2]:R:1:c_diameter[3]:R:1 energy=-0.6578250020981206 pbc="F F F"
X       10.00000000      10.00000000      10.00000000       1.00000000       0.00000000       0.00000000       0.00000000       1.00000000       1.50000000       1.00000000
X       11.42676768      10.00000000      10.00000000       0.76604444       0.00000000       0.64278761       0.00000000       1.00000000       1.50000000       1.00000000
2
Lattice="20.0 0.0 0.0 0.0 20.0 0.0 0.0 0.0 20.0" Properties=species:S:1:pos:R:3:quaternions:R:4:c_diameter[1]:R:1:c_diameter[2]:R:1:c_diameter[3]:R:1 energy=-0.6578250020981206 pbc="F F F"
X       10.00000000      10.00000000      10.00000000       1.00000000       0.00000000       0.00000000       0.00000000       1.00000000       1.50000000       1.00000000
X       11.42676768      10.00000000      10.00000000       0.64278761       0.00000000       0.76604444       0.00000000       1.00000000       1.50000000       1.00000000
2
Lattice="20.0 0.0 0.0 0.0 20.0 0.0 0.0 0.0 20.0" Properties=species:S:1:pos:R:3:quaternions:R:4:c_diameter[1]:R:1:c_diameter[2]:R:1:c_diameter[3]:R:1 energy=-0.6578250020981206 pbc="F F F"
X       10.00000000      10.00000000      10.00000000       1.00000000       0.00000000       0.00000000       0.00000000       1.00000000       1.50000000       1.00000000
X       11.42676768      10.00000000      10.00000000       0.50000000       0.00000000       0.86602540       0.00000000       1.00000000       1.50000000       1.00000000
2
Lattice="20.0 0.0 0.0 0.0 20.0 0.0 0.0 0.0 20.0" Properties=species:S:1:pos:R:3:quaternions:R:4:c_diameter[1]:R:1:c_diameter[2]:R:1:c_diameter[3]:R:1 energy=-0.6578250020981206 pbc="F F F"
X       10.00000000      10.00000000      10.00000000       1.00000000       0.00000000       0.00000000       0.00000000       1.00000000       1.50000000       1.00000000
X       11.42676768      10.00000000      10.00000000       0.34202014       0.00000000       0.93969262       0.00000000       1.00000000       1.50000000       1.00000000
2
Lattice="20.0 0.0 0.0 0.0 20.0 0.0 0.0 0.0 20.0" Properties=species:S:1:pos:R:3:quaternions:R:4:c_diameter[1]:R:1:c_diameter[2]:R:1:c_diameter[3]:R:1 energy=-0.6578250020981206 pbc="F F F"
X       10.00000000      10.00000000      10.00000000       1.00000000       0.00000000       0.00000000       0.00000000       1.00000000       1.50000000       1.00000000
X       11.42676768      10.00000000      10.00000000       0.17364818       0.00000000       0.98480775       0.00000000       1.00000000       1.50000000       1.00000000
2
Lattice="20.0 0.0 0.0 0.0 20.0 0.0 0.0 0.0 20.0" Properties=species:S:1:pos:R:3:quaternions:R:4:c_diameter[1]:R:1:c_diameter[2]:R:1:c_diameter[3]:R:1 energy=-0.6578250020981206 pbc="F F F"
X       10.00000000      10.00000000      10.00000000       1.00000000       0.00000000       0.00000000       0.00000000       1.00000000       1.50000000       1.00000000
X       11.42676768      10.00000000      10.00000000       0.00000000       0.00000000       1.00000000       0.00000000       1.00000000       1.50000000       1.00000000
2
Lattice="20.0 0.0 0.0 0.0 20.0 0.0 0.0 0.0 20.0" Properties=species:S:1:pos:R:3:quaternions:R:4:c_diameter[1]:R:1:c_diameter[2]:R:1:c_diameter[3]:R:1 energy=-0.4689477120022099 pbc="F F F"
X       10.00000000      10.00000000      10.00000000       1.00000000       0.00000000       0.00000000       0.00000000       1.00000000       1.50000000       1.00000000
X       11.74382716      10.00000000      10.00000000       1.00000000       0.00000000       0.00000000       0.00000000       1.00000000       1.50000000       1.00000000
2
Lattice="20.0 0.0 0.0 0.0 20.0 0.0 0.0 0.0 20.0" Properties=species:S:1:pos:R:3:quaternions:R:4:c_diameter[1]:R:1:c_diameter[2]:R:1:c_diameter[3]:R:1 energy=-0.4689477120022099 pbc="F F F"
X       10.00000000      10.00000000      10.00000000       1.00000000       0.00000000       0.00000000       0.00000000       1.00000000       1.50000000       1.00000000
X       11.74382716      10.00000000      10.00000000       0.98480775       0.00000000       0.17364818       0.00000000       1.00000000       1.50000000       1.00000000
2
Lattice="20.0 0.0 0.0 0.0 20.0 0.0 0.0 0.0 20.0" Properties=species:S:1:pos:R:3:quaternions:R:4:c_diameter[1]:R:1:c_diameter[2]:R:1:c_diameter[3]:R:1 energy=-0.4689477120022099 pbc="F F F"
X       10.00000000      10.00000000      10.00000000       1.00000000       0.00000000       0.00000000       0.00000000       1.00000000       1.50000000       1.00000000
X       11.74382716      10.00000000      10.00000000       0.93969262       0.00000000       0.34202014       0.00000000       1.00000000       1.50000000       1.00000000
2
Lattice="20.0 0.0 0.0 0.0 20.0 0.0 0.0 0.0 20.0" Properties=species:S:1:pos:R:3:quaternions:R:4:c_diameter[1]:R:1:c_diameter[2]:R:1:c_diameter[3]:R:1 energy=-0.4689477120022099 pbc="F F F"
X       10.00000000      10.00000000      10.00000000       1.00000000       0.00000000       0.00000000       0.00000000       1.00000000       1.50000000       1.00000000
X       11.74382716      10.00000000      10.00000000       0.86602540       0.00000000       0.50000000       0.00000000       1.00000000       1.50000000       1.00000000
2
Lattice="20.0 0.0 0.0 0.0 20.0 0.0 0.0 0.0 20.0" Properties=species:S:1:pos:R:3:quaternions:R:4:c_diameter[1]:R:1:c_diameter[2]:R:1:c_diameter[3]:R:1 energy=-0.4689477120022099 pbc="F F F"
X       10.00000000      10.00000000      10.00000000       1.00000000       0.00000000       0.00000000       0.00000000       1.00000000       1.50000000       1.00000000
X       11.74382716      10.00000000      10.00000000       0.76604444       0.00000000       0.64278761       0.00000000       1.00000000       1.50000000       1.00000000
2
Lattice="20.0 0.0 0.0 0.0 20.0 0.0 0.0 0.0 20.0" Properties=species:S:1:pos:R:3:quaternions:R:4:c_diameter[1]:R:1:c_diameter[2]:R:1:c_diameter[3]:R:1 energy=-0.4689477120022099 pbc="F F F"
X       10.00000000      10.00000000      10.00000000       1.00000000       0.00000000       0.00000000       0.00000000       1.00000000       1.50000000       1.00000000
X       11.74382716      10.00000000      10.00000000       0.64278761       0.00000000       0.76604444       0.00000000       1.00000000       1.50000000       1.00000000
2
Lattice="20.0 0.0 0.0 0.0 20.0 0.0 0.0 0.0 20.0" Properties=species:S:1:pos:R:3:quaternions:R:4:c_diameter[1]:R:1:c_diameter[2]:R:1:c_diameter[3]:R:1 energy=-0.4689477120022099 pbc="F F F"
X       10.00000000      10.00000000      10.00000000       1.00000000       0.00000000       0.00000000       0.00000000       1.00000000       1.50000000       1.00000000
X       11.74382716      10.00000000      10.00000000       0.50000000       0.00000000       0.86602540       0.00000000       1.00000000       1.50000000       1.00000000
2
Lattice="20.0 0.0 0.0 0.0 20.0 0.0 0.0 0.0 20.0" Properties=species:S:1:pos:R:3:quaternions:R:4:c_diameter[1]:R:1:c_diameter[2]:R:1:c_diameter[3]:R:1 energy=-0.4689477120022099 pbc="F F F"
X       10.00000000      10.00000000      10.00000000       1.00000000       0.00000000       0.00000000       0.00000000       1.00000000       1.50000000       1.00000000
X       11.74382716      10.00000000      10.00000000       0.34202014       0.00000000       0.93969262       0.00000000       1.00000000       1.50000000       1.00000000
2
Lattice="20.0 0.0 0.0 0.0 20.0 0.0 0.0 0.0 20.0" Properties=species:S:1:pos:R:3:quaternions:R:4:c_diameter[1]:R:1:c_diameter[2]:R:1:c_diameter[3]:R:1 energy=-0.4689477120022099 pbc="F F F"
X       10.00000000      10.00000000      10.00000000       1.00000000       0.00000000       0.00000000       0.00000000       1.00000000       1.50000000       1.00000000
X       11.74382716      10.00000000      10.00000000       0.17364818       0.00000000       0.98480775       0.00000000       1.00000000       1.50000000       1.00000000
2
Lattice="20.0 0.0 0.0 0.0 20.0 0.0 0.0 0.0 20.0" Properties=species:S:1:pos:R:3:quaternions:R:4:c_diameter[1]:R:1:c_diameter[2]:R:1:c_diameter[3]:R:1 energy=-0.4689477120022099 pbc="F F F"
X       10.00000000      10.00000000      10.00000000       1.00000000       0.00000000       0.00000000       0.00000000       1.00000000       1.50000000       1.00000000
X       11.74382716      10.00000000      10.00000000       0.00000000       0.00000000       1.00000000       0.00000000       1.00000000       1.50000000       1.00000000
2
Lattice="20.0 0.0 0.0 0.0 20.0 0.0 0.0 0.0 20.0" Properties=species:S:1:pos:R:3:quaternions:R:4:c_diameter[1]:R:1:c_diameter[2]:R:1:c_diameter[3]:R:1 energy=-0.13686456969273605 pbc="F F F"
X       10.00000000      10.00000000      10.00000000       1.00000000       0.00000000       0.00000000       0.00000000       1.00000000       1.50000000       1.00000000
X       12.06088664      10.00000000      10.00000000       1.00000000       0.00000000       0.00000000       0.00000000       1.00000000       1.50000000       1.00000000
2
Lattice="20.0 0.0 0.0 0.0 20.0 0.0 0.0 0.0 20.0" Properties=species:S:1:pos:R:3:quaternions:R:4:c_diameter[1]:R:1:c_diameter[2]:R:1:c_diameter[3]:R:1 energy=-0.13686456969273605 pbc="F F F"
X       10.00000000      10.00000000      10.00000000       1.00000000       0.00000000       0.00000000       0.00000000       1.00000000       1.50000000       1.00000000
X       12.06088664      10.00000000      10.00000000       0.98480775       0.00000000       0.17364818       0.00000000       1.00000000       1.50000000       1.00000000
2
Lattice="20.0 0.0 0.0 0.0 20.0 0.0 0.0 0.0 20.0" Properties=species:S:1:pos:R:3:quaternions:R:4:c_diameter[1]:R:1:c_diameter[2]:R:1:c_diameter[3]:R:1 energy=-0.13686456969273605 pbc="F F F"
X       10.00000000      10.00000000      10.00000000       1.00000000       0.00000000       0.00000000       0.00000000       1.00000000       1.50000000       1.00000000
X       12.06088664      10.00000000      10.00000000       0.93969262       0.00000000       0.34202014       0.00000000       1.00000000       1.50000000       1.00000000
2
Lattice="20.0 0.0 0.0 0.0 20.0 0.0 0.0 0.0 20.0" Properties=species:S:1:pos:R:3:quaternions:R:4:c_diameter[1]:R:1:c_diameter[2]:R:1:c_diameter[3]:R:1 energy=-0.13686456969273605 pbc="F F F"
X       10.00000000      10.00000000      10.00000000       1.00000000       0.00000000       0.00000000       0.00000000       1.00000000       1.50000000       1.00000000
X       12.06088664      10.00000000      10.00000000       0.86602540       0.00000000       0.50000000       0.00000000       1.00000000       1.50000000       1.00000000
2
Lattice="20.0 0.0 0.0 0.0 20.0 0.0 0.0 0.0 20.0" Properties=species:S:1:pos:R:3:quaternions:R:4:c_diameter[1]:R:1:c_diameter[2]:R:1:c_diameter[3]:R:1 energy=-0.13686456969273605 pbc="F F F"
X       10.00000000      10.00000000      10.00000000       1.00000000       0.00000000       0.00000000       0.00000000       1.00000000       1.50000000       1.00000000
X       12.06088664      10.00000000      10.00000000       0.76604444       0.00000000       0.64278761       0.00000000       1.00000000       1.50000000       1.00000000
2
Lattice="20.0 0.0 0.0 0.0 20.0 0.0 0.0 0.0 20.0" Properties=species:S:1:pos:R:3:quaternions:R:4:c_diameter[1]:R:1:c_diameter[2]:R:1:c_diameter[3]:R:1 energy=-0.13686456969273605 pbc="F F F"
X       10.00000000      10.00000000      10.00000000       1.00000000       0.00000000       0.00000000       0.00000000       1.00000000       1.50000000       1.00000000
X       12.06088664      10.00000000      10.00000000       0.64278761       0.00000000       0.76604444       0.00000000       1.00000000       1.50000000       1.00000000
2
Lattice="20.0 0.0 0.0 0.0 20.0 0.0 0.0 0.0 20.0" Properties=species:S:1:pos:R:3:quaternions:R:4:c_diameter[1]:R:1:c_diameter[2]:R:1:c_diameter[3]:R:1 energy=-0.13686456969273605 pbc="F F F"
X       10.00000000      10.00000000      10.00000000       1.00000000       0.00000000       0.00000000       0.00000000       1.00000000       1.50000000       1.00000000
X       12.06088664      10.00000000      10.00000000       0.50000000       0.00000000       0.86602540       0.00000000       1.00000000       1.50000000       1.00000000
2
Lattice="20.0 0.0 0.0 0.0 20.0 0.0 0.0 0.0 20.0" Properties=species:S:1:pos:R:3:quaternions:R:4:c_diameter[1]:R:1:c_diameter[2]:R:1:c_diameter[3]:R:1 energy=-0.13686456969273605 pbc="F F F"
X       10.00000000      10.00000000      10.00000000       1.00000000       0.00000000       0.00000000       0.00000000       1.00000000       1.50000000       1.00000000
X       12.06088664      10.00000000      10.00000000       0.34202014       0.00000000       0.93969262       0.00000000       1.00000000       1.50000000       1.00000000
2
Lattice="20.0 0.0 0.0 0.0 20.0 0.0 0.0 0.0 20.0" Properties=species:S:1:pos:R:3:quaternions:R:4:c_diameter[1]:R:1:c_diameter[2]:R:1:c_diameter[3]:R:1 energy=-0.13686456969273605 pbc="F F F"
X       10.00000000      10.00000000      10.00000000       1.00000000       0.00000000       0.00000000       0.00000000       1.00000000       1.50000000       1.00000000
X       12.06088664      10.00000000      10.00000000       0.17364818       0.00000000       0.98480775       0.00000000       1.00000000       1.50000000       1.00000000
2
Lattice="20.0 0.0 0.0 0.0 20.0 0.0 0.0 0.0 20.0" Properties=species:S:1:pos:R:3:quaternions:R:4:c_diameter[1]:R:1:c_diameter[2]:R:1:c_diameter[3]:R:1 energy=-0.13686456969273605 pbc="F F F"
X       10.00000000      10.00000000      10.00000000       1.00000000       0.00000000       0.00000000       0.00000000       1.00000000       1.50000000       1.00000000
X       12.06088664      10.00000000      10.00000000       0.00000000       0.00000000       1.00000000       0.00000000       1.00000000       1.50000000       1.00000000
2
Lattice="20.0 0.0 0.0 0.0 20.0 0.0 0.0 0.0 20.0" Properties=species:S:1:pos:R:3:quaternions:R:4:c_diameter[1]:R:1:c_diameter[2]:R:1:c_diameter[3]:R:1 energy=-0.057517633619910975 pbc="F F F"
X       10.00000000      10.00000000      10.00000000       1.00000000       0.00000000       0.00000000       0.00000000       1.00000000       1.50000000       1.00000000
X       12.37794613      10.00000000      10.00000000       1.00000000       0.00000000       0.00000000       0.00000000       1.00000000       1.50000000       1.00000000
2
Lattice="20.0 0.0 0.0 0.0 20.0 0.0 0.0 0.0 20.0" Properties=species:S:1:pos:R:3:quaternions:R:4:c_diameter[1]:R:1:c_diameter[2]:R:1:c_diameter[3]:R:1 energy=-0.057517633619910975 pbc="F F F"
X       10.00000000      10.00000000      10.00000000       1.00000000       0.00000000       0.00000000       0.00000000       1.00000000       1.50000000       1.00000000
X       12.37794613      10.00000000      10.00000000       0.98480775       0.00000000       0.17364818       0.00000000       1.00000000       1.50000000       1.00000000
2
Lattice="20.0 0.0 0.0 0.0 20.0 0.0 0.0 0.0 20.0" Properties=species:S:1:pos:R:3:quaternions:R:4:c_diameter[1]:R:1:c_diameter[2]:R:1:c_diameter[3]:R:1 energy=-0.057517633619910975 pbc="F F F"
X       10.00000000      10.00000000      10.00000000       1.00000000       0.00000000       0.00000000       0.00000000       1.00000000       1.50000000       1.00000000
X       12.37794613      10.00000000      10.00000000       0.93969262       0.00000000       0.34202014       0.00000000       1.00000000       1.50000000       1.00000000
2
Lattice="20.0 0.0 0.0 0.0 20.0 0.0 0.0 0.0 20.0" Properties=species:S:1:pos:R:3:quaternions:R:4:c_diameter[1]:R:1:c_diameter[2]:R:1:c_diameter[3]:R:1 energy=-0.057517633619910975 pbc="F F F"
X       10.00000000      10.00000000      10.00000000       1.00000000       0.00000000       0.00000000       0.00000000       1.00000000       1.50000000       1.00000000
X       12.37794613      10.00000000      10.00000000       0.86602540       0.00000000       0.50000000       0.00000000       1.00000000       1.50000000       1.00000000
2
Lattice="20.0 0.0 0.0 0.0 20.0 0.0 0.0 0.0 20.0" Properties=species:S:1:pos:R:3:quaternions:R:4:c_diameter[1]:R:1:c_diameter[2]:R:1:c_diameter[3]:R:1 energy=-0.057517633619910975 pbc="F F F"
X       10.00000000      10.00000000      10.00000000       1.00000000       0.00000000       0.00000000       0.00000000       1.00000000       1.50000000       1.00000000
X       12.37794613      10.00000000      10.00000000       0.76604444       0.00000000       0.64278761       0.00000000       1.00000000       1.50000000       1.00000000
2
Lattice="20.0 0.0 0.0 0.0 20.0 0.0 0.0 0.0 20.0" Properties=species:S:1:pos:R:3:quaternions:R:4:c_diameter[1]:R:1:c_diameter[2]:R:1:c_diameter[3]:R:1 energy=-0.057517633619910975 pbc="F F F"
X       10.00000000      10.00000000      10.00000000       1.00000000       0.00000000       0.00000000       0.00000000       1.00000000       1.50000000       1.00000000
X       12.37794613      10.00000000      10.00000000       0.64278761       0.00000000       0.76604444       0.00000000       1.00000000       1.50000000       1.00000000
2
Lattice="20.0 0.0 0.0 0.0 20.0 0.0 0.0 0.0 20.0" Properties=species:S:1:pos:R:3:quaternions:R:4:c_diameter[1]:R:1:c_diameter[2]:R:1:c_diameter[3]:R:1 energy=-0.057517633619910975 pbc="F F F"
X       10.00000000      10.00000000      10.00000000       1.00000000       0.00000000       0.00000000       0.00000000       1.00000000       1.50000000       1.00000000
X       12.37794613      10.00000000      10.00000000       0.50000000       0.00000000       0.86602540       0.00000000       1.00000000       1.50000000       1.00000000
2
Lattice="20.0 0.0 0.0 0.0 20.0 0.0 0.0 0.0 20.0" Properties=species:S:1:pos:R:3:quaternions:R:4:c_diameter[1]:R:1:c_diameter[2]:R:1:c_diameter[3]:R:1 energy=-0.057517633619910975 pbc="F F F"
X       10.00000000      10.00000000      10.00000000       1.00000000       0.00000000       0.00000000       0.00000000       1.00000000       1.50000000       1.00000000
X       12.37794613      10.00000000      10.00000000       0.34202014       0.00000000       0.93969262       0.00000000       1.00000000       1.50000000       1.00000000
2
Lattice="20.0 0.0 0.0 0.0 20.0 0.0 0.0 0.0 20.0" Properties=species:S:1:pos:R:3:quaternions:R:4:c_diameter[1]:R:1:c_diameter[2]:R:1:c_diameter[3]:R:1 energy=-0.057517633619910975 pbc="F F F"
X       10.00000000      10.00000000      10.00000000       1.00000000       0.00000000       0.00000000       0.00000000       1.00000000       1.50000000       1.00000000
X       12.37794613      10.00000000      10.00000000       0.17364818       0.00000000       0.98480775       0.00000000       1.00000000       1.50000000       1.00000000
2
Lattice="20.0 0.0 0.0 0.0 20.0 0.0 0.0 0.0 20.0" Properties=species:S:1:pos:R:3:quaternions:R:4:c_diameter[1]:R:1:c_diameter[2]:R:1:c_diameter[3]:R:1 energy=-0.057517633619910975 pbc="F F F"
X       10.00000000      10.00000000      10.00000000       1.00000000       0.00000000       0.00000000       0.00000000       1.00000000       1.50000000       1.00000000
X       12.37794613      10.00000000      10.00000000       0.00000000       0.00000000       1.00000000       0.00000000       1.00000000       1.50000000       1.00000000
2
Lattice="20.0 0.0 0.0 0.0 20.0 0.0 0.0 0.0 20.0" Properties=species:S:1:pos:R:3:quaternions:R:4:c_diameter[1]:R:1:c_diameter[2]:R:1:c_diameter[3]:R:1 energy=-0.029772231602534102 pbc="F F F"
X       10.00000000      10.00000000      10.00000000       1.00000000       0.00000000       0.00000000       0.00000000       1.00000000       1.50000000       1.00000000
X       12.69500561      10.00000000      10.00000000       1.00000000       0.00000000       0.00000000       0.00000000       1.00000000       1.50000000       1.00000000
2
Lattice="20.0 0.0 0.0 0.0 20.0 0.0 0.0 0.0 20.0" Properties=species:S:1:pos:R:3:quaternions:R:4:c_diameter[1]:R:1:c_diameter[2]:R:1:c_diameter[3]:R:1 energy=-0.029772231602534102 pbc="F F F"
X       10.00000000      10.00000000      10.00000000       1.00000000       0.00000000       0.00000000       0.00000000       1.00000000       1.50000000       1.00000000
X       12.69500561      10.00000000      10.00000000       0.98480775       0.00000000       0.17364818       0.00000000       1.00000000       1.50000000       1.00000000
2
Lattice="20.0 0.0 0.0 0.0 20.0 0.0 0.0 0.0 20.0" Properties=species:S:1:pos:R:3:quaternions:R:4:c_diameter[1]:R:1:c_diameter[2]:R:1:c_diameter[3]:R:1 energy=-0.029772231602534102 pbc="F F F"
X       10.00000000      10.00000000      10.00000000       1.00000000       0.00000000       0.00000000       0.00000000       1.00000000       1.50000000       1.00000000
X       12.69500561      10.00000000      10.00000000       0.93969262       0.00000000       0.34202014       0.00000000       1.00000000       1.50000000       1.00000000
2
Lattice="20.0 0.0 0.0 0.0 20.0 0.0 0.0 0.0 20.0" Properties=species:S:1:pos:R:3:quaternions:R:4:c_diameter[1]:R:1:c_diameter[2]:R:1:c_diameter[3]:R:1 energy=-0.029772231602534102 pbc="F F F"
X       10.00000000      10.00000000      10.00000000       1.00000000       0.00000000       0.00000000       0.00000000       1.00000000       1.50000000       1.00000000
X       12.69500561      10.00000000      10.00000000       0.86602540       0.00000000       0.50000000       0.00000000       1.00000000       1.50000000       1.00000000
2
Lattice="20.0 0.0 0.0 0.0 20.0 0.0 0.0 0.0 20.0" Properties=species:S:1:pos:R:3:quaternions:R:4:c_diameter[1]:R:1:c_diameter[2]:R:1:c_diameter[3]:R:1 energy=-0.029772231602534102 pbc="F F F"
X       10.00000000      10.00000000      10.00000000       1.00000000       0.00000000       0.00000000       0.00000000       1.00000000       1.50000000       1.00000000
X       12.69500561      10.00000000      10.00000000       0.76604444       0.00000000       0.64278761       0.00000000       1.00000000       1.50000000       1.00000000
2
Lattice="20.0 0.0 0.0 0.0 20.0 0.0 0.0 0.0 20.0" Properties=species:S:1:pos:R:3:quaternions:R:4:c_diameter[1]:R:1:c_diameter[2]:R:1:c_diameter[3]:R:1 energy=-0.029772231602534102 pbc="F F F"
X       10.00000000      10.00000000      10.00000000       1.00000000       0.00000000       0.00000000       0.00000000       1.00000000       1.50000000       1.00000000
X       12.69500561      10.00000000      10.00000000       0.64278761       0.00000000       0.76604444       0.00000000       1.00000000       1.50000000       1.00000000
2
Lattice="20.0 0.0 0.0 0.0 20.0 0.0 0.0 0.0 20.0" Properties=species:S:1:pos:R:3:quaternions:R:4:c_diameter[1]:R:1:c_diameter[2]:R:1:c_diameter[3]:R:1 energy=-0.029772231602534102 pbc="F F F"
X       10.00000000      10.00000000      10.00000000       1.00000000       0.00000000       0.00000000       0.00000000       1.00000000       1.50000000       1.00000000
X       12.69500561      10.00000000      10.00000000       0.50000000       0.00000000       0.86602540       0.00000000       1.00000000       1.50000000       1.00000000
2
Lattice="20.0 0.0 0.0 0.0 20.0 0.0 0.0 0.0 20.0" Properties=species:S:1:pos:R:3:quaternions:R:4:c_diameter[1]:R:1:c_diameter[2]:R:1:c_diameter[3]:R:1 energy=-0.029772231602534102 pbc="F F F"
X       10.00000000      10.00000000      10.00000000       1.00000000       0.00000000       0.00000000       0.00000000       1.00000000       1.50000000       1.00000000
X       12.69500561      10.00000000      10.00000000       0.34202014       0.00000000       0.93969262       0.00000000       1.00000000       1.50000000       1.00000000
2
Lattice="20.0 0.0 0.0 0.0 20.0 0.0 0.0 0.0 20.0" Properties=species:S:1:pos:R:3:quaternions:R:4:c_diameter[1]:R:1:c_diameter[2]:R:1:c_diameter[3]:R:1 energy=-0.029772231602534102 pbc="F F F"
X       10.00000000      10.00000000      10.00000000       1.00000000       0.00000000       0.00000000       0.00000000       1.00000000       1.50000000       1.00000000
X       12.69500561      10.00000000      10.00000000       0.17364818       0.00000000       0.98480775       0.00000000       1.00000000       1.50000000       1.00000000
2
Lattice="20.0 0.0 0.0 0.0 20.0 0.0 0.0 0.0 20.0" Properties=species:S:1:pos:R:3:quaternions:R:4:c_diameter[1]:R:1:c_diameter[2]:R:1:c_diameter[3]:R:1 energy=-0.029772231602534102 pbc="F F F"
X       10.00000000      10.00000000      10.00000000       1.00000000       0.00000000       0.00000000       0.00000000       1.00000000       1.50000000       1.00000000
X       12.69500561      10.00000000      10.00000000       0.00000000       0.00000000       1.00000000       0.00000000       1.00000000       1.50000000       1.00000000
2
Lattice="20.0 0.0 0.0 0.0 20.0 0.0 0.0 0.0 20.0" Properties=species:S:1:pos:R:3:quaternions:R:4:c_diameter[1]:R:1:c_diameter[2]:R:1:c_diameter[3]:R:1 energy=-0.017518104871448413 pbc="F F F"
X       10.00000000      10.00000000      10.00000000       1.00000000       0.00000000       0.00000000       0.00000000       1.00000000       1.50000000       1.00000000
X       13.01206510      10.00000000      10.00000000       1.00000000       0.00000000       0.00000000       0.00000000       1.00000000       1.50000000       1.00000000
2
Lattice="20.0 0.0 0.0 0.0 20.0 0.0 0.0 0.0 20.0" Properties=species:S:1:pos:R:3:quaternions:R:4:c_diameter[1]:R:1:c_diameter[2]:R:1:c_diameter[3]:R:1 energy=-0.017518104871448413 pbc="F F F"
X       10.00000000      10.00000000      10.00000000       1.00000000       0.00000000       0.00000000       0.00000000       1.00000000       1.50000000       1.00000000
X       13.01206510      10.00000000      10.00000000       0.98480775       0.00000000       0.17364818       0.00000000       1.00000000       1.50000000       1.00000000
2
Lattice="20.0 0.0 0.0 0.0 20.0 0.0 0.0 0.0 20.0" Properties=species:S:1:pos:R:3:quaternions:R:4:c_diameter[1]:R:1:c_diameter[2]:R:1:c_diameter[3]:R:1 energy=-0.017518104871448413 pbc="F F F"
X       10.00000000      10.00000000      10.00000000       1.00000000       0.00000000       0.00000000       0.00000000       1.00000000       1.50000000       1.00000000
X       13.01206510      10.00000000      10.00000000       0.93969262       0.00000000       0.34202014       0.00000000       1.00000000       1.50000000       1.00000000
2
Lattice="20.0 0.0 0.0 0.0 20.0 0.0 0.0 0.0 20.0" Properties=species:S:1:pos:R:3:quaternions:R:4:c_diameter[1]:R:1:c_diameter[2]:R:1:c_diameter[3]:R:1 energy=-0.017518104871448413 pbc="F F F"
X       10.00000000      10.00000000      10.00000000       1.00000000       0.00000000       0.00000000       0.00000000       1.00000000       1.50000000       1.00000000
X       13.01206510      10.00000000      10.00000000       0.86602540       0.00000000       0.50000000       0.00000000       1.00000000       1.50000000       1.00000000
2
Lattice="20.0 0.0 0.0 0.0 20.0 0.0 0.0 0.0 20.0" Properties=species:S:1:pos:R:3:quaternions:R:4:c_diameter[1]:R:1:c_diameter[2]:R:1:c_diameter[3]:R:1 energy=-0.017518104871448413 pbc="F F F"
X       10.00000000      10.00000000      10.00000000       1.00000000       0.00000000       0.00000000       0.00000000       1.00000000       1.50000000       1.00000000
X       13.01206510      10.00000000      10.00000000       0.76604444       0.00000000       0.64278761       0.00000000       1.00000000       1.50000000       1.00000000
2
Lattice="20.0 0.0 0.0 0.0 20.0 0.0 0.0 0.0 20.0" Properties=species:S:1:pos:R:3:quaternions:R:4:c_diameter[1]:R:1:c_diameter[2]:R:1:c_diameter[3]:R:1 energy=-0.017518104871448413 pbc="F F F"
X       10.00000000      10.00000000      10.00000000       1.00000000       0.00000000       0.00000000       0.00000000       1.00000000       1.50000000       1.00000000