2
Lattice="20.0 0.0 0.0 0.0 20.0 0.0 0.0 0.0 20.0" Properties=species:S:1:pos:R:3:quaternions:R:4:c_diameter\[1\]:R:1:c_diameter\[2\]:R:1:c_diameter\[3\]:R:1:angles:R:1 separation_distance=1.4267676767676767 energy=-0.5127238467553719 pbc="F F F"
X       10.00000000      10.00000000      10.00000000       1.00000000       0.00000000       0.00000000       0.00000000       1.00000000       2.00000000       1.00000000       0.00000000
X       11.42676768      10.00000000      10.00000000       1.00000000       0.00000000       0.00000000       0.00000000       1.00000000       2.00000000       1.00000000       0.00000000
2
Lattice="20.0 0.0 0.0 0.0 20.0 0.0 0.0 0.0 20.0" Properties=species:S:1:pos:R:3:quaternions:R:4:c_diameter\[1\]:R:1:c_diameter\[2\]:R:1:c_diameter\[3\]:R:1:angles:R:1 separation_distance=1.4267676767676767 energy=-0.5127238467553719 pbc="F F F"
X       10.00000000      10.00000000      10.00000000       1.00000000       0.00000000       0.00000000       0.00000000       1.00000000       2.00000000       1.00000000       0.00000000
X       11.42676768      10.00000000      10.00000000       0.00000000       0.00000000       0.00000000       1.00000000       1.00000000       2.00000000       1.00000000       3.14159265
2
Lattice="20.0 0.0 0.0 0.0 20.0 0.0 0.0 0.0 20.0" Properties=species:S:1:pos:R:3:quaternions:R:4:c_diameter\[1\]:R:1:c_diameter\[2\]:R:1:c_diameter\[3\]:R:1:angles:R:1 separation_distance=1.7438271604938271 energy=-0.3655085684764524 pbc="F F F"
X       10.00000000      10.00000000      10.00000000       1.00000000       0.00000000       0.00000000       0.00000000       1.00000000       2.00000000       1.00000000       0.00000000
X       11.74382716      10.00000000      10.00000000       1.00000000       0.00000000       0.00000000       0.00000000       1.00000000       2.00000000       1.00000000       0.00000000
2
Lattice="20.0 0.0 0.0 0.0 20.0 0.0 0.0 0.0 20.0" Properties=species:S:1:pos:R:3:quaternions:R:4:c_diameter\[1\]:R:1:c_diameter\[2\]:R:1:c_diameter\[3\]:R:1:angles:R:1 separation_distance=1.7438271604938271 energy=-0.4901593593704072 pbc="F F F"
X       10.00000000      10.00000000      10.00000000       1.00000000       0.00000000       0.00000000       0.00000000       1.00000000       2.00000000       1.00000000       0.00000000
X       11.74382716      10.00000000      10.00000000       0.98480775       0.00000000       0.00000000       0.17364818       1.00000000       2.00000000       1.00000000       0.34906585
2
Lattice="20.0 0.0 0.0 0.0 20.0 0.0 0.0 0.0 20.0" Properties=species:S:1:pos:R:3:quaternions:R:4:c_diameter\[1\]:R:1:c_diameter\[2\]:R:1:c_diameter\[3\]:R:1:angles:R:1 separation_distance=1.7438271604938271 energy=-1.0206324557377215 pbc="F F F"
X       10.00000000      10.00000000      10.00000000       1.00000000       0.00000000       0.00000000       0.00000000       1.00000000       2.00000000       1.00000000       0.00000000
X       11.74382716      10.00000000      10.00000000       0.93969262       0.00000000       0.00000000       0.34202014       1.00000000       2.00000000       1.00000000       0.69813170
2
Lattice="20.0 0.0 0.0 0.0 20.0 0.0 0.0 0.0 20.0" Properties=species:S:1:pos:R:3:quaternions:R:4:c_diameter\[1\]:R:1:c_diameter\[2\]:R:1:c_diameter\[3\]:R:1:angles:R:1 separation_distance=1.7438271604938271 energy=-2.017524344367087 pbc="F F F"
X       10.00000000      10.00000000      10.00000000       1.00000000       0.00000000       0.00000000       0.00000000       1.00000000       2.00000000       1.00000000       0.00000000
X       11.74382716      10.00000000      10.00000000       0.86602540       0.00000000       0.00000000       0.50000000       1.00000000       2.00000000       1.00000000       1.04719755
2
Lattice="20.0 0.0 0.0 0.0 20.0 0.0 0.0 0.0 20.0" Properties=species:S:1:pos:R:3:quaternions:R:4:c_diameter\[1\]:R:1:c_diameter\[2\]:R:1:c_diameter\[3\]:R:1:angles:R:1 separation_distance=1.7438271604938271 energy=-2.017524344367087 pbc="F F F"
X       10.00000000      10.00000000      10.00000000       1.00000000       0.00000000       0.00000000       0.00000000       1.00000000       2.00000000       1.00000000       0.00000000
X       11.74382716      10.00000000      10.00000000       0.50000000       0.00000000       0.00000000       0.86602540       1.00000000       2.00000000       1.00000000       2.09439510
2
Lattice="20.0 0.0 0.0 0.0 20.0 0.0 0.0 0.0 20.0" Properties=species:S:1:pos:R:3:quaternions:R:4:c_diameter\[1\]:R:1:c_diameter\[2\]:R:1:c_diameter\[3\]:R:1:angles:R:1 separation_distance=1.7438271604938271 energy=-1.0206324557377227 pbc="F F F"
X       10.00000000      10.00000000      10.00000000       1.00000000       0.00000000       0.00000000       0.00000000       1.00000000       2.00000000       1.00000000       0.00000000
X       11.74382716      10.00000000      10.00000000       0.34202014       0.00000000       0.00000000       0.93969262       1.00000000       2.00000000       1.00000000       2.44346095
2
Lattice="20.0 0.0 0.0 0.0 20.0 0.0 0.0 0.0 20.0" Properties=species:S:1:pos:R:3:quaternions:R:4:c_diameter\[1\]:R:1:c_diameter\[2\]:R:1:c_diameter\[3\]:R:1:angles:R:1 separation_distance=1.7438271604938271 energy=-0.49015935937040755 pbc="F F F"
X       10.00000000      10.00000000      10.00000000       1.00000000       0.00000000       0.00000000       0.00000000       1.00000000       2.00000000       1.00000000       0.00000000
X       11.74382716      10.00000000      10.00000000       0.17364818       0.00000000       0.00000000       0.98480775       1.00000000       2.00000000       1.00000000       2.79252680
2
Lattice="20.0 0.0 0.0 0.0 20.0 0.0 0.0 0.0 20.0" Properties=species:S:1:pos:R:3:quaternions:R:4:c_diameter\[1\]:R:1:c_diameter\[2\]:R:1:c_diameter\[3\]:R:1:angles:R:1 separation_distance=1.7438271604938271 energy=-0.3655085684764524 pbc="F F F"
X       10.00000000      10.00000000      10.00000000       1.00000000       0.00000000       0.00000000       0.00000000       1.00000000       2.00000000       1.00000000       0.00000000
X       11.74382716      10.00000000      10.00000000       0.00000000       0.00000000       0.00000000       1.00000000       1.00000000       2.00000000       1.00000000       3.14159265
2
Lattice="20.0 0.0 0.0 0.0 20.0 0.0 0.0 0.0 20.0" Properties=species:S:1:pos:R:3:quaternions:R:4:c_diameter\[1\]:R:1:c_diameter\[2\]:R:1:c_diameter\[3\]:R:1:angles:R:1 separation_distance=2.060886644219978 energy=-0.10667537480874172 pbc="F F F"
X       10.00000000      10.00000000      10.00000000       1.00000000       0.00000000       0.00000000       0.00000000       1.00000000       2.00000000       1.00000000       0.00000000
X       12.06088664      10.00000000      10.00000000       1.00000000       0.00000000       0.00000000       0.00000000       1.00000000       2.00000000       1.00000000       0.00000000
2
Lattice="20.0 0.0 0.0 0.0 20.0 0.0 0.0 0.0 20.0" Properties=species:S:1:pos:R:3:quaternions:R:4:c_diameter\[1\]:R:1:c_diameter\[2\]:R:1:c_diameter\[3\]:R:1:angles:R:1 separation_distance=2.060886644219978 energy=-0.13311997627815156 pbc="F F F"
X       10.00000000      10.00000000      10.00000000       1.00000000       0.00000000       0.00000000       0.00000000       1.00000000       2.00000000       1.00000000       0.00000000
X       12.06088664      10.00000000      10.00000000       0.98480775       0.00000000       0.00000000       0.17364818       1.00000000       2.00000000       1.00000000       0.34906585
2
Lattice="20.0 0.0 0.0 0.0 20.0 0.0 0.0 0.0 20.0" Properties=species:S:1:pos:R:3:quaternions:R:4:c_diameter\[1\]:R:1:c_diameter\[2\]:R:1:c_diameter\[3\]:R:1:angles:R:1 separation_distance=2.060886644219978 energy=-0.22964929505168558 pbc="F F F"
X       10.00000000      10.00000000      10.00000000       1.00000000       0.00000000       0.00000000       0.00000000       1.00000000       2.00000000       1.00000000       0.00000000
X       12.06088664      10.00000000      10.00000000       0.93969262       0.00000000       0.00000000       0.34202014       1.00000000       2.00000000       1.00000000       0.69813170
2
Lattice="20.0 0.0 0.0 0.0 20.0 0.0 0.0 0.0 20.0" Properties=species:S:1:pos:R:3:quaternions:R:4:c_diameter\[1\]:R:1:c_diameter\[2\]:R:1:c_diameter\[3\]:R:1:angles:R:1 separation_distance=2.060886644219978 energy=-0.4546534339188901 pbc="F F F"
X       10.00000000      10.00000000      10.00000000       1.00000000       0.00000000       0.00000000       0.00000000       1.00000000       2.00000000       1.00000000       0.00000000
X       12.06088664      10.00000000      10.00000000       0.86602540       0.00000000       0.00000000       0.50000000       1.00000000       2.00000000       1.00000000       1.04719755
2
Lattice="20.0 0.0 0.0 0.0 20.0 0.0 0.0 0.0 20.0" Properties=species:S:1:pos:R:3:quaternions:R:4:c_diameter\[1\]:R:1:c_diameter\[2\]:R:1:c_diameter\[3\]:R:1:angles:R:1 separation_distance=2.060886644219978 energy=-0.7745361845023202 pbc="F F F"
X       10.00000000      10.00000000      10.00000000       1.00000000       0.00000000       0.00000000       0.00000000       1.00000000       2.00000000       1.00000000       0.00000000
X       12.06088664      10.00000000      10.00000000       0.76604444       0.00000000       0.00000000       0.64278761       1.00000000       2.00000000       1.00000000       1.39626340
2
Lattice="20.0 0.0 0.0 0.0 20.0 0.0 0.0 0.0 20.0" Properties=species:S:1:pos:R:3:quaternions:R:4:c_diameter\[1\]:R:1:c_diameter\[2\]:R:1:c_diameter\[3\]:R:1:angles:R:1 separation_distance=2.060886644219978 energy=-0.7745361845023211 pbc="F F F"
X       10.00000000      10.00000000      10.00000000       1.00000000       0.00000000       0.00000000       0.00000000       1.00000000       2.00000000       1.00000000       0.00000000
X       12.06088664      10.00000000      10.00000000       0.64278761       0.00000000       0.00000000       0.76604444       1.00000000       2.00000000       1.00000000       1.74532925
2
Lattice="20.0 0.0 0.0 0.0 20.0 0.0 0.0 0.0 20.0" Properties=species:S:1:pos:R:3:quaternions:R:4:c_diameter\[1\]:R:1:c_diameter\[2\]:R:1:c_diameter\[3\]:R:1:angles:R:1 separation_distance=2.060886644219978 energy=-0.45465343391889007 pbc="F F F"
X       10.00000000      10.00000000      10.00000000       1.00000000       0.00000000       0.00000000       0.00000000       1.00000000       2.00000000       1.00000000       0.00000000
X       12.06088664      10.00000000      10.00000000       0.50000000       0.00000000       0.00000000       0.86602540       1.00000000       2.00000000       1.00000000       2.09439510
2
Lattice="20.0 0.0 0.0 0.0 20.0 0.0 0.0 0.0 20.0" Properties=species:S:1:pos:R:3:quaternions:R:4:c_diameter\[1\]:R:1:c_diameter\[2\]:R:1:c_diameter\[3\]:R:1:angles:R:1 separation_distance=2.060886644219978 energy=-0.22964929505168546 pbc="F F F"
X       10.00000000      10.00000000      10.00000000       1.00000000       0.00000000       0.00000000       0.00000000       1.00000000       2.00000000       1.00000000       0.00000000
X       12.06088664      10.00000000      10.00000000       0.34202014       0.00000000       0.00000000       0.93969262       1.00000000       2.00000000       1.00000000       2.44346095
2
Lattice="20.0 0.0 0.0 0.0 20.0 0.0 0.0 0.0 20.0" Properties=species:S:1:pos:R:3:quaternions:R:4:c_diameter\[1\]:R:1:c_diameter\[2\]:R:1:c_diameter\[3\]:R:1:angles:R:1 separation_distance=2.060886644219978 energy=-0.1331199762781517 pbc="F F F"
X       10.00000000      10.00000000      10.00000000       1.00000000       0.00000000       0.00000000       0.00000000       1.00000000       2.00000000       1.00000000       0.00000000
X       12.06088664      10.00000000      10.00000000       0.17364818       0.00000000       0.00000000       0.98480775       1.00000000       2.00000000       1.00000000       2.79252680
2
Lattice="20.0 0.0 0.0 0.0 20.0 0.0 0.0 0.0 20.0" Properties=species:S:1:pos:R:3:quaternions:R:4:c_diameter\[1\]:R:1:c_diameter\[2\]:R:1:c_diameter\[3\]:R:1:angles:R:1 separation_distance=2.060886644219978 energy=-0.10667537480874172 pbc="F F F"
X       10.00000000      10.00000000      10.00000000       1.00000000       0.00000000       0.00000000       0.00000000       1.00000000       2.00000000       1.00000000       0.00000000
X       12.06088664      10.00000000      10.00000000       0.00000000       0.00000000       0.00000000       1.00000000       1.00000000       2.00000000       1.00000000       3.14159265
2
Lattice="20.0 0.0 0.0 0.0 20.0 0.0 0.0 0.0 20.0" Properties=species:S:1:pos:R:3:quaternions:R:4:c_diameter\[1\]:R:1:c_diameter\[2\]:R:1:c_diameter\[3\]:R:1:angles:R:1 separation_distance=2.377946127946128 energy=-0.04483055869236793 pbc="F F F"
X       10.00000000      10.00000000      10.00000000       1.00000000       0.00000000       0.00000000       0.00000000       1.00000000       2.00000000       1.00000000       0.00000000
X       12.37794613      10.00000000      10.00000000       1.00000000       0.00000000       0.00000000       0.00000000       1.00000000       2.00000000       1.00000000       0.00000000
2
Lattice="20.0 0.0 0.0 0.0 20.0 0.0 0.0 0.0 20.0" Properties=species:S:1:pos:R:3:quaternions:R:4:c_diameter\[1\]:R:1:c_diameter\[2\]:R:1:c_diameter\[3\]:R:1:angles:R:1 separation_distance=2.377946127946128 energy=-0.053546062917368 pbc="F F F"
X       10.00000000      10.00000000      10.00000000       1.00000000       0.00000000       0.00000000       0.00000000       1.00000000       2.00000000       1.00000000       0.00000000
X       12.37794613      10.00000000      10.00000000       0.98480775       0.00000000       0.00000000       0.17364818       1.00000000       2.00000000       1.00000000       0.34906585
2
Lattice="20.0 0.0 0.0 0.0 20.0 0.0 0.0 0.0 20.0" Properties=species:S:1:pos:R:3:quaternions:R:4:c_diameter\[1\]:R:1:c_diameter\[2\]:R:1:c_diameter\[3\]:R:1:angles:R:1 separation_distance=2.377946127946128 energy=-0.08125739395425458 pbc="F F F"
X       10.00000000      10.00000000      10.00000000       1.00000000       0.00000000       0.00000000       0.00000000       1.00000000       2.00000000       1.00000000       0.00000000
X       12.37794613      10.00000000      10.00000000       0.93969262       0.00000000       0.00000000       0.34202014       1.00000000       2.00000000       1.00000000       0.69813170
2
Lattice="20.0 0.0 0.0 0.0 20.0 0.0 0.0 0.0 20.0" Properties=species:S:1:pos:R:3:quaternions:R:4:c_diameter\[1\]:R:1:c_diameter\[2\]:R:1:c_diameter\[3\]:R:1:angles:R:1 separation_distance=2.377946127946128 energy=-0.13322470310942747 pbc="F F F"
X       10.00000000      10.00000000      10.00000000       1.00000000       0.00000000       0.00000000       0.00000000       1.00000000       2.00000000       1.00000000       0.00000000
X       12.37794613      10.00000000      10.00000000       0.86602540       0.00000000       0.00000000       0.50000000       1.00000000       2.00000000       1.00000000       1.04719755
2
Lattice="20.0 0.0 0.0 0.0 20.0 0.0 0.0 0.0 20.0" Properties=species:S:1:pos:R:3:quaternions:R:4:c_diameter\[1\]:R:1:c_diameter\[2\]:R:1:c_diameter\[3\]:R:1:angles:R:1 separation_distance=2.377946127946128 energy=-0.19389389629855294 pbc="F F F"
X       10.00000000      10.00000000      10.00000000       1.00000000       0.00000000       0.00000000       0.00000000       1.00000000       2.00000000       1.00000000       0.00000000
X       12.37794613      10.00000000      10.00000000       0.76604444       0.00000000       0.00000000       0.64278761       1.00000000       2.00000000       1.00000000       1.39626340
2
Lattice="20.0 0.0 0.0 0.0 20.0 0.0 0.0 0.0 20.0" Properties=species:S:1:pos:R:3:quaternions:R:4:c_diameter\[1\]:R:1:c_diameter\[2\]:R:1:c_diameter\[3\]:R:1:angles:R:1 separation_distance=2.377946127946128 energy=-0.19389389629855291 pbc="F F F"
X       10.00000000      10.00000000      10.00000000       1.00000000       0.00000000       0.00000000       0.00000000       1.00000000       2.00000000       1.00000000       0.00000000
X       12.37794613      10.00000000      10.00000000       0.64278761       0.00000000       0.00000000       0.76604444       1.00000000       2.00000000       1.00000000       1.74532925
2
Lattice="20.0 0.0 0.0 0.0 20.0 0.0 0.0 0.0 20.0" Properties=species:S:1:pos:R:3:quaternions:R:4:c_diameter\[1\]:R:1:c_diameter\[2\]:R:1:c_diameter\[3\]:R:1:angles:R:1 separation_distance=2.377946127946128 energy=-0.1332247031094275 pbc="F F F"
X       10.00000000      10.00000000      10.00000000       1.00000000       0.00000000       0.00000000       0.00000000       1.00000000       2.00000000       1.00000000       0.00000000
X       12.37794613      10.00000000      10.00000000       0.50000000       0.00000000       0.00000000       0.86602540       1.00000000       2.00000000       1.00000000       2.09439510
2
Lattice="20.0 0.0 0.0 0.0 20.0 0.0 0.0 0.0 20.0" Properties=species:S:1:pos:R:3:quaternions:R:4:c_diameter\[1\]:R:1:c_diameter\[2\]:R:1:c_diameter\[3\]:R:1:angles:R:1 separation_distance=2.377946127946128 energy=-0.08125739395425473 pbc="F F F"
X       10.00000000      10.00000000      10.00000000       1.00000000       0.00000000       0.00000000       0.00000000       1.00000000       2.00000000       1.00000000       0.00000000
X       12.37794613      10.00000000      10.00000000       0.34202014       0.00000000       0.00000000       0.93969262       1.00000000       2.00000000       1.00000000       2.44346095
2
Lattice="20.0 0.0 0.0 0.0 20.0 0.0 0.0 0.0 20.0" Properties=species:S:1:pos:R:3:quaternions:R:4:c_diameter\[1\]:R:1:c_diameter\[2\]:R:1:c_diameter\[3\]:R:1:angles:R:1 separation_distance=2.377946127946128 energy=-0.05354606291736803 pbc="F F F"
X       10.00000000      10.00000000      10.00000000       1.00000000       0.00000000       0.00000000       0.00000000       1.00000000       2.00000000       1.00000000       0.00000000
X       12.37794613      10.00000000      10.00000000       0.17364818       0.00000000       0.00000000       0.98480775       1.00000000       2.00000000       1.00000000       2.79252680
2
Lattice="20.0 0.0 0.0 0.0 20.0 0.0 0.0 0.0 20.0" Properties=species:S:1:pos:R:3:quaternions:R:4:c_diameter\[1\]:R:1:c_diameter\[2\]:R:1:c_diameter\[3\]:R:1:angles:R:1 separation_distance=2.377946127946128 energy=-0.04483055869236793 pbc="F F F"
X       10.00000000      10.00000000      10.00000000       1.00000000       0.00000000       0.00000000       0.00000000       1.00000000       2.00000000       1.00000000       0.00000000
X       12.37794613      10.00000000      10.00000000       0.00000000       0.00000000       0.00000000       1.00000000       1.00000000       2.00000000       1.00000000       3.14159265
2
Lattice="20.0 0.0 0.0 0.0 20.0 0.0 0.0 0.0 20.0" Properties=species:S:1:pos:R:3:quaternions:R:4:c_diameter\[1\]:R:1:c_diameter\[2\]:R:1:c_diameter\[3\]:R:1:angles:R:1 separation_distance=2.6950056116722783 energy=-0.023205158005633587 pbc="F F F"
X       10.00000000      10.00000000      10.00000000       1.00000000       0.00000000       0.00000000       0.00000000       1.00000000       2.00000000       1.00000000       0.00000000
X       12.69500561      10.00000000      10.00000000       1.00000000       0.00000000       0.00000000       0.00000000       1.00000000       2.00000000       1.00000000       0.00000000
2
Lattice="20.0 0.0 0.0 0.0 20.0 0.0 0.0 0.0 20.0" Properties=species:S:1:pos:R:3:quaternions:R:4:c_diameter\[1\]:R:1:c_diameter\[2\]:R:1:c_diameter\[3\]:R:1:angles:R:1 separation_distance=2.6950056116722783 energy=-0.026978576496164253 pbc="F F F"
X       10.00000000      10.00000000      10.00000000       1.00000000       0.00000000       0.00000000       0.00000000       1.00000000       2.00000000       1.00000000       0.00000000
X       12.69500561      10.00000000      10.00000000       0.98480775       0.00000000       0.00000000       0.17364818       1.00000000       2.00000000       1.00000000       0.34906585
2
Lattice="20.0 0.0 0.0 0.0 20.0 0.0 0.0 0.0 20.0" Properties=species:S:1:pos:R:3:quaternions:R:4:c_diameter\[1\]:R:1:c_diameter\[2\]:R:1:c_diameter\[3\]:R:1:angles:R:1 separation_distance=2.6950056116722783 energy=-0.03787060904908506 pbc="F F F"
X       10.00000000      10.00000000      10.00000000       1.00000000       0.00000000       0.00000000       0.00000000       1.00000000       2.00000000       1.00000000       0.00000000
X       12.69500561      10.00000000      10.00000000       0.93969262       0.00000000       0.00000000       0.34202014       1.00000000       2.00000000       1.00000000       0.69813170
2
Lattice="20.0 0.0 0.0 0.0 20.0 0.0 0.0 0.0 20.0" Properties=species:S:1:pos:R:3:quaternions:R:4:c_diameter\[1\]:R:1:c_diameter\[2\]:R:1:c_diameter\[3\]:R:1:angles:R:1 separation_distance=2.6950056116722783 energy=-0.05544562767767396 pbc="F F F"
X       10.00000000      10.00000000      10.00000000       1.00000000       0.00000000       0.00000000       0.00000000       1.00000000       2.00000000       1.00000000       0.00000000
X       12.69500561      10.00000000      10.00000000       0.86602540       0.00000000       0.00000000       0.50000000       1.00000000       2.00000000       1.00000000       1.04719755
2
Lattice="20.0 0.0 0.0 0.0 20.0 0.0 0.0 0.0 20.0" Properties=species:S:1:pos:R:3:quaternions:R:4:c_diameter\[1\]:R:1:c_diameter\[2\]:R:1:c_diameter\[3\]:R:1:angles:R:1 separation_distance=2.6950056116722783 energy=-0.07330039069682892 pbc="F F F"
X       10.00000000      10.00000000      10.00000000       1.00000000       0.00000000       0.00000000       0.00000000       1.00000000       2.00000000       1.00000000       0.00000000
X       12.69500561      10.00000000      10.00000000       0.76604444       0.00000000       0.00000000       0.64278761       1.00000000       2.00000000       1.00000000       1.39626340
2
Lattice="20.0 0.0 0.0 0.0 20.0 0.0 0.0 0.0 20.0" Properties=species:S:1:pos:R:3:quaternions:R:4:c_diameter\[1\]:R:1:c_diameter\[2\]:R:1:c_diameter\[3\]:R:1:angles:R:1 separation_distance=2.6950056116722783 energy=-0.07330039069682892 pbc="F F F"
X       10.00000000      10.00000000      10.00000000       1.00000000       0.00000000       0.00000000       0.00000000       1.00000000       2.00000000       1.00000000       0.00000000
X       12.69500561      10.00000000      10.00000000       0.64278761       0.00000000       0.00000000       0.76604444       1.00000000       2.00000000       1.00000000       1.74532925
2
Lattice="20.0 0.0 0.0 0.0 20.0 0.0 0.0 0.0 20.0" Properties=species:S:1:pos:R:3:quaternions:R:4:c_diameter\[1\]:R:1:c_diameter\[2\]:R:1:c_diameter\[3\]:R:1:angles:R:1 separation_distance=2.6950056116722783 energy=-0.05544562767767395 pbc="F F F"
X       10.00000000      10.00000000      10.00000000       1.00000000       0.00000000       0.00000000       0.00000000       1.00000000       2.00000000       1.00000000       0.00000000
X       12.69500561      10.00000000      10.00000000       0.50000000       0.00000000       0.00000000       0.86602540       1.00000000       2.00000000       1.00000000       2.09439510
2
Lattice="20.0 0.0 0.0 0.0 20.0 0.0 0.0 0.0 20.0" Properties=species:S:1:pos:R:3:quaternions:R:4:c_diameter\[1\]:R:1:c_diameter\[2\]:R:1:c_diameter\[3\]:R:1:angles:R:1 separation_distance=2.6950056116722783 energy=-0.037870609049085076 pbc="F F F"
X       10.00000000      10.00000000      10.00000000       1.00000000       0.00000000       0.00000000       0.00000000       1.00000000       2.00000000       1.00000000       0.00000000
X       12.69500561      10.00000000      10.00000000       0.34202014       0.00000000       0.00000000       0.93969262       1.00000000       2.00000000       1.00000000       2.44346095
2
Lattice="20.0 0.0 0.0 0.0 20.0 0.0 0.0 0.0 20.0" Properties=species:S:1:pos:R:3:quaternions:R:4:c_diameter\[1\]:R:1:c_diameter\[2\]:R:1:c_diameter\[3\]:R:1:angles:R:1 separation_distance=2.6950056116722783 energy=-0.02697857649616428 pbc="F F F"
X       10.00000000      10.00000000      10.00000000       1.00000000       0.00000000       0.00000000       0.00000000       1.00000000       2.00000000       1.00000000       0.00000000
X       12.69500561      10.00000000      10.00000000       0.17364818       0.00000000       0.00000000       0.98480775       1.00000000       2.00000000       1.00000000       2.79252680
2
Lattice="20.0 0.0 0.0 0.0 20.0 0.0 0.0 0.0 20.0" Properties=species:S:1:pos:R:3:quaternions:R:4:c_diameter\[1\]:R:1:c_diameter\[2\]:R:1:c_diameter\[3\]:R:1:angles:R:1 separation_distance=2.6950056116722783 energy=-0.023205158005633587 pbc="F F F"
X       10.00000000      10.00000000      10.00000000       1.00000000       0.00000000       0.00000000       0.00000000       1.00000000       2.00000000       1.00000000       0.00000000
X       12.69500561      10.00000000      10.00000000       0.00000000       0.00000000       0.00000000       1.00000000       1.00000000       2.00000000       1.00000000       3.14159265
2
Lattice="20.0 0.0 0.0 0.0 20.0 0.0 0.0 0.0 20.0" Properties=species:S:1:pos:R:3:quaternions:R:4:c_diameter\[1\]:R:1:c_diameter\[2\]:R:1:c_diameter\[3\]:R:1:angles:R:1 separation_distance=3.012065095398429 energy=-0.013654011460350834 pbc="F F F"
X       10.00000000      10.00000000      10.00000000       1.00000000       0.00000000       0.00000000       0.00000000       1.00000000       2.00000000       1.00000000       0.00000000
X       13.01206510      10.00000000      10.00000000       1.00000000       0.00000000       0.00000000       0.00000000       1.00000000       2.00000000       1.00000000       0.00000000
2
Lattice="20.0 0.0 0.0 0.0 20.0 0.0 0.0 0.0 20.0" Properties=species:S:1:pos:R:3:quaternions:R:4:c_diameter\[1\]:R:1:c_diameter\[2\]:R:1:c_diameter\[3\]:R:1:angles:R:1 separation_distance=3.012065095398429 energy=-0.015592975630717628 pbc="F F F"
X       10.00000000      10.00000000      10.00000000       1.00000000       0.00000000       0.00000000       0.00000000       1.00000000       2.00000000       1.00000000       0.00000000
X       13.01206510      10.00000000      10.00000000       0.98480775       0.00000000       0.00000000       0.17364818       1.00000000       2.00000000       1.00000000       0.34906585
2
Lattice="20.0 0.0 0.0 0.0 20.0 0.0 0.0 0.0 20.0" Properties=species:S:1:pos:R:3:quaternions:R:4:c_diameter\[1\]:R:1:c_diameter\[2\]:R:1:c_diameter\[3\]:R:1:angles:R:1 separation_distance=3.012065095398429 energy=-0.020799914565417115 pbc="F F F"
X       10.00000000      10.00000000      10.00000000       1.00000000       0.00000000       0.00000000       0.00000000       1.00000000       2.00000000       1.00000000       0.00000000
X       13.01206510      10.00000000      10.00000000       0.93969262       0.00000000       0.00000000       0.34202014       1.00000000       2.00000000       1.00000000       0.69813170
2
Lattice="20.0 0.0 0.0 0.0 20.0 0.0 0.0 0.0 20.0" Properties=species:S:1:pos:R:3:quaternions:R:4:c_diameter\[1\]:R:1:c_diameter\[2\]:R:1:c_diameter\[3\]:R:1:angles:R:1 separation_distance=3.012065095398429 energy=-0.028323849937780754 pbc="F F F"
X       10.00000000      10.00000000      10.00000000       1.00000000       0.00000000       0.00000000       0.00000000       1.00000000       2.00000000       1.00000000       0.00000000
X       13.01206510      10.00000000      10.00000000       0.86602540       0.00000000       0.00000000       0.50000000       1.00000000       2.00000000       1.00000000       1.04719755
2
Lattice="20.0 0.0 0.0 0.0 20.0 0.0 0.0 0.0 20.0" Properties=species:S:1:pos:R:3:quaternions:R:4:c_diameter\[1\]:R:1:c_diameter\[2\]:R:1:c_diameter\[3\]:R:1:angles:R:1 separation_distance=3.012065095398429 energy=-0.03525569705306365 pbc="F F F"
X       10.00000000      10.00000000      10.00000000       1.00000000       0.00000000       0.00000000       0.00000000       1.00000000       2.00000000       1.00000000       0.00000000
X       13.01206510      10.00000000      10.00000000       0.76604444       0.00000000       0.00000000       0.64278761       1.00000000       2.00000000       1.00000000       1.39626340
2
Lattice="20.0 0.0 0.0 0.0 20.0 0.0 0.0 0.0 20.0" Properties=species:S:1:pos:R:3:quaternions:R:4:c_diameter\[1\]:R:1:c_diameter\[2\]:R:1:c_diameter\[3\]:R:1:angles:R:1 separation_distance=3.012065095398429 energy=-0.035255697053063646 pbc="F F F"
X       10.00000000      10.00000000      10.00000000       1.00000000       0.00000000       0.00000000       0.00000000       1.00000000       2.00000000       1.00000000       0.00000000
X       13.01206510      10.00000000      10.00000000       0.64278761       0.00000000       0.00000000       0.76604444       1.00000000       2.00000000       1.00000000       1.74532925
2
Lattice="20.0 0.0 0.0 0.0 20.0 0.0 0.0 0.0 20.0" Properties=species:S:1:pos:R:3:quaternions:R:4:c_diameter\[1\]:R:1:c_diameter\[2\]:R:1:c_diameter\[3\]:R:1:angles:R:1 separation_distance=3.012065095398429 energy=-0.028323849937780754 pbc="F F F"
X       10.00000000      10.00000000      10.00000000       1.00000000       0.00000000       0.00000000       0.00000000       1.00000000       2.00000000       1.00000000       0.00000000
X       13.01206510      10.00000000      10.00000000       0.50000000       0.00000000       0.00000000       0.86602540       1.00000000       2.00000000       1.00000000       2.09439510
2
Lattice="20.0 0.0 0.0 0.0 20.0 0.0 0.0 0.0 20.0" Properties=species:S:1:pos:R:3:quaternions:R:4:c_diameter\[1\]:R:1:c_diameter\[2\]:R:1:c_diameter\[3\]:R:1:angles:R:1 separation_distance=3.012065095398429 energy=-0.020799914565417105 pbc="F F F"
X       10.00000000      10.00000000      10.00000000       1.00000000       0.00000000       0.00000000       0.00000000       1.00000000       2.00000000       1.00000000       0.00000000