2
Lattice="20.0 0.0 0.0 0.0 20.0 0.0 0.0 0.0 20.0" Properties=species:S:1:pos:R:3:quaternions:R:4:c_diameter[1]:R:1:c_diameter[2]:R:1:c_diameter[3]:R:1:angles:R:1 separation_distance=1.4267676767676767 energy=-0.6578250020981206 pbc="F F F"
X       10.00000000      10.00000000      10.00000000       1.00000000       0.00000000       0.00000000       0.00000000       1.00000000       1.50000000       1.00000000       0.00000000
X       11.42676768      10.00000000      10.00000000       1.00000000       0.00000000       0.00000000       0.00000000       1.00000000       1.50000000       1.00000000       0.00000000
2
Lattice="20.0 0.0 0.0 0.0 20.0 0.0 0.0 0.0 20.0" Properties=species:S:1:pos:R:3:quaternions:R:4:c_diameter[1]:R:1:c_diameter[2]:R:1:c_diameter[3]:R:1:angles:R:1 separation_distance=1.4267676767676767 energy=-0.6578250020981206 pbc="F F F"
X       10.00000000      10.00000000      10.00000000       1.00000000       0.00000000       0.00000000       0.00000000       1.00000000       1.50000000       1.00000000       0.00000000
X       11.42676768      10.00000000      10.00000000       0.00000000       0.00000000       0.00000000       1.00000000       1.00000000       1.50000000       1.00000000       3.14159265
2
Lattice="20.0 0.0 0.0 0.0 20.0 0.0 0.0 0.0 20.0" Properties=species:S:1:pos:R:3:quaternions:R:4:c_diameter[1]:R:1:c_diameter[2]:R:1:c_diameter[3]:R:1:angles:R:1 separation_distance=1.7438271604938271 energy=-0.4689477120022099 pbc="F F F"
X       10.00000000      10.00000000      10.00000000       1.00000000       0.00000000       0.00000000       0.00000000       1.00000000       1.50000000       1.00000000       0.00000000
X       11.74382716      10.00000000      10.00000000       1.00000000       0.00000000       0.00000000       0.00000000       1.00000000       1.50000000       1.00000000       0.00000000
2
Lattice="20.0 0.0 0.0 0.0 20.0 0.0 0.0 0.0 20.0" Properties=species:S:1:pos:R:3:quaternions:R:4:c_diameter[1]:R:1:c_diameter[2]:R:1:c_diameter[3]:R:1:angles:R:1 separation_distance=1.7438271604938271 energy=-0.5445993215066944 pbc="F F F"
X       10.00000000      10.00000000      10.00000000       1.00000000       0.00000000       0.00000000       0.00000000       1.00000000       1.50000000       1.00000000       0.00000000
X       11.74382716      10.00000000      10.00000000       0.98480775       0.00000000       0.00000000       0.17364818       1.00000000       1.50000000       1.00000000       0.34906585
2
Lattice="20.0 0.0 0.0 0.0 20.0 0.0 0.0 0.0 20.0" Properties=species:S:1:pos:R:3:quaternions:R:4:c_diameter[1]:R:1:c_diameter[2]:R:1:c_diameter[3]:R:1:angles:R:1 separation_distance=1.7438271604938271 energy=-0.8026351106267579 pbc="F F F"
X       10.00000000      10.00000000      10.00000000       1.00000000       0.00000000       0.00000000       0.00000000       1.00000000       1.50000000       1.00000000       0.00000000
X       11.74382716      10.00000000      10.00000000       0.93969262       0.00000000       0.00000000       0.34202014       1.00000000       1.50000000       1.00000000       0.69813170
2
Lattice="20.0 0.0 0.0 0.0 20.0 0.0 0.0 0.0 20.0" Properties=species:S:1:pos:R:3:quaternions:R:4:c_diameter[1]:R:1:c_diameter[2]:R:1:c_diameter[3]:R:1:angles:R:1 separation_distance=1.7438271604938271 energy=-1.2825862550848959 pbc="F F F"
X       10.00000000      10.00000000      10.00000000       1.00000000       0.00000000       0.00000000       0.00000000       1.00000000       1.50000000       1.00000000       0.00000000
X       11.74382716      10.00000000      10.00000000       0.86602540       0.00000000       0.00000000       0.50000000       1.00000000       1.50000000       1.00000000       1.04719755
2
Lattice="20.0 0.0 0.0 0.0 20.0 0.0 0.0 0.0 20.0" Properties=species:S:1:pos:R:3:quaternions:R:4:c_diameter[1]:R:1:c_diameter[2]:R:1:c_diameter[3]:R:1:angles:R:1 separation_distance=1.7438271604938271 energy=-1.7677224380387935 pbc="F F F"
X       10.00000000      10.00000000      10.00000000       1.00000000       0.00000000       0.00000000       0.00000000       1.00000000       1.50000000       1.00000000       0.00000000
X       11.74382716      10.00000000      10.00000000       0.76604444       0.00000000       0.00000000       0.64278761       1.00000000       1.50000000       1.00000000       1.39626340
2
Lattice="20.0 0.0 0.0 0.0 20.0 0.0 0.0 0.0 20.0" Properties=species:S:1:pos:R:3:quaternions:R:4:c_diameter[1]:R:1:c_diameter[2]:R:1:c_diameter[3]:R:1:angles:R:1 separation_distance=1.7438271604938271 energy=-1.767722438038795 pbc="F F F"
X       10.00000000      10.00000000      10.00000000       1.00000000       0.00000000       0.00000000       0.00000000       1.00000000       1.50000000       1.00000000       0.00000000
X       11.74382716      10.00000000      10.00000000       0.64278761       0.00000000       0.00000000       0.76604444       1.00000000       1.50000000       1.00000000       1.74532925
2
Lattice="20.0 0.0 0.0 0.0 20.0 0.0 0.0 0.0 20.0" Properties=species:S:1:pos:R:3:quaternions:R:4:c_diameter[1]:R:1:c_diameter[2]:R:1:c_diameter[3]:R:1:angles:R:1 separation_distance=1.7438271604938271 energy=-1.2825862550848963 pbc="F F F"
X       10.00000000      10.00000000      10.00000000       1.00000000       0.00000000       0.00000000       0.00000000       1.00000000       1.50000000       1.00000000       0.00000000
X       11.74382716      10.00000000      10.00000000       0.50000000       0.00000000       0.00000000       0.86602540       1.00000000       1.50000000       1.00000000       2.09439510
2
Lattice="20.0 0.0 0.0 0.0 20.0 0.0 0.0 0.0 20.0" Properties=species:S:1:pos:R:3:quaternions:R:4:c_diameter[1]:R:1:c_diameter[2]:R:1:c_diameter[3]:R:1:angles:R:1 separation_distance=1.7438271604938271 energy=-0.8026351106267589 pbc="F F F"
X       10.00000000      10.00000000      10.00000000       1.00000000       0.00000000       0.00000000       0.00000000       1.00000000       1.50000000       1.00000000       0.00000000
X       11.74382716      10.00000000      10.00000000       0.34202014       0.00000000       0.00000000       0.93969262       1.00000000       1.50000000       1.00000000       2.44346095
2
Lattice="20.0 0.0 0.0 0.0 20.0 0.0 0.0 0.0 20.0" Properties=species:S:1:pos:R:3:quaternions:R:4:c_diameter[1]:R:1:c_diameter[2]:R:1:c_diameter[3]:R:1:angles:R:1 separation_distance=1.7438271604938271 energy=-0.5445993215066948 pbc="F F F"
X       10.00000000      10.00000000      10.00000000       1.00000000       0.00000000       0.00000000       0.00000000       1.00000000       1.50000000       1.00000000       0.00000000
X       11.74382716      10.00000000      10.00000000       0.17364818       0.00000000       0.00000000       0.98480775       1.00000000       1.50000000       1.00000000       2.79252680
2
Lattice="20.0 0.0 0.0 0.0 20.0 0.0 0.0 0.0 20.0" Properties=species:S:1:pos:R:3:quaternions:R:4:c_diameter[1]:R:1:c_diameter[2]:R:1:c_diameter[3]:R:1:angles:R:1 separation_distance=1.7438271604938271 energy=-0.4689477120022099 pbc="F F F"
X       10.00000000      10.00000000      10.00000000       1.00000000       0.00000000       0.00000000       0.00000000       1.00000000       1.50000000       1.00000000       0.00000000
X       11.74382716      10.00000000      10.00000000       0.00000000       0.00000000       0.00000000       1.00000000       1.00000000       1.50000000       1.00000000       3.14159265
2
Lattice="20.0 0.0 0.0 0.0 20.0 0.0 0.0 0.0 20.0" Properties=species:S:1:pos:R:3:quaternions:R:4:c_diameter[1]:R:1:c_diameter[2]:R:1:c_diameter[3]:R:1:angles:R:1 separation_distance=2.060886644219978 energy=-0.13686456969273605 pbc="F F F"
X       10.00000000      10.00000000      10.00000000       1.00000000       0.00000000       0.00000000       0.00000000       1.00000000       1.50000000       1.00000000       0.00000000
X       12.06088664      10.00000000      10.00000000       1.00000000       0.00000000       0.00000000       0.00000000       1.00000000       1.50000000       1.00000000       0.00000000
2
Lattice="20.0 0.0 0.0 0.0 20.0 0.0 0.0 0.0 20.0" Properties=species:S:1:pos:R:3:quaternions:R:4:c_diameter[1]:R:1:c_diameter[2]:R:1:c_diameter[3]:R:1:angles:R:1 separation_distance=2.060886644219978 energy=-0.15353312229343644 pbc="F F F"
X       10.00000000      10.00000000      10.00000000       1.00000000       0.00000000       0.00000000       0.00000000       1.00000000       1.50000000       1.00000000       0.00000000
X       12.06088664      10.00000000      10.00000000       0.98480775       0.00000000       0.00000000       0.17364818       1.00000000       1.50000000       1.00000000       0.34906585
2
Lattice="20.0 0.0 0.0 0.0 20.0 0.0 0.0 0.0 20.0" Properties=species:S:1:pos:R:3:quaternions:R:4:c_diameter[1]:R:1:c_diameter[2]:R:1:c_diameter[3]:R:1:angles:R:1 separation_distance=2.060886644219978 energy=-0.20579582949359823 pbc="F F F"
X       10.00000000      10.00000000      10.00000000       1.00000000       0.00000000       0.00000000       0.00000000       1.00000000       1.50000000       1.00000000       0.00000000
X       12.06088664      10.00000000      10.00000000       0.93969262       0.00000000       0.00000000       0.34202014       1.00000000       1.50000000       1.00000000       0.69813170
2
Lattice="20.0 0.0 0.0 0.0 20.0 0.0 0.0 0.0 20.0" Properties=species:S:1:pos:R:3:quaternions:R:4:c_diameter[1]:R:1:c_diameter[2]:R:1:c_diameter[3]:R:1:angles:R:1 separation_distance=2.060886644219978 energy=-0.29274297430388235 pbc="F F F"
X       10.00000000      10.00000000      10.00000000       1.00000000       0.00000000       0.00000000       0.00000000       1.00000000       1.50000000       1.00000000       0.00000000
X       12.06088664      10.00000000      10.00000000       0.86602540       0.00000000       0.00000000       0.50000000       1.00000000       1.50000000       1.00000000       1.04719755
2
Lattice="20.0 0.0 0.0 0.0 20.0 0.0 0.0 0.0 20.0" Properties=species:S:1:pos:R:3:quaternions:R:4:c_diameter[1]:R:1:c_diameter[2]:R:1:c_diameter[3]:R:1:angles:R:1 separation_distance=2.060886644219978 energy=-0.37659582128864544 pbc="F F F"
X       10.00000000      10.00000000      10.00000000       1.00000000       0.00000000       0.00000000       0.00000000       1.00000000       1.50000000       1.00000000       0.00000000
X       12.06088664      10.00000000      10.00000000       0.76604444       0.00000000       0.00000000       0.64278761       1.00000000       1.50000000       1.00000000       1.39626340
2
Lattice="20.0 0.0 0.0 0.0 20.0 0.0 0.0 0.0 20.0" Properties=species:S:1:pos:R:3:quaternions:R:4:c_diameter[1]:R:1:c_diameter[2]:R:1:c_diameter[3]:R:1:angles:R:1 separation_distance=2.060886644219978 energy=-0.37659582128864566 pbc="F F F"
X       10.00000000      10.00000000      10.00000000       1.00000000       0.00000000       0.00000000       0.00000000       1.00000000       1.50000000       1.00000000       0.00000000
X       12.06088664      10.00000000      10.00000000       0.64278761       0.00000000       0.00000000       0.76604444       1.00000000       1.50000000       1.00000000       1.74532925
2
Lattice="20.0 0.0 0.0 0.0 20.0 0.0 0.0 0.0 20.0" Properties=species:S:1:pos:R:3:quaternions:R:4:c_diameter[1]:R:1:c_diameter[2]:R:1:c_diameter[3]:R:1:angles:R:1 separation_distance=2.060886644219978 energy=-0.2927429743038823 pbc="F F F"
X       10.00000000      10.00000000      10.00000000       1.00000000       0.00000000       0.00000000       0.00000000       1.00000000       1.50000000       1.00000000       0.00000000
X       12.06088664      10.00000000      10.00000000       0.50000000       0.00000000       0.00000000       0.86602540       1.00000000       1.50000000       1.00000000       2.09439510
2
Lattice="20.0 0.0 0.0 0.0 20.0 0.0 0.0 0.0 20.0" Properties=species:S:1:pos:R:3:quaternions:R:4:c_diameter[1]:R:1:c_diameter[2]:R:1:c_diameter[3]:R:1:angles:R:1 separation_distance=2.060886644219978 energy=-0.2057958294935983 pbc="F F F"
X       10.00000000      10.00000000      10.00000000       1.00000000       0.00000000       0.00000000       0.00000000       1.00000000       1.50000000       1.00000000       0.00000000
X       12.06088664      10.00000000      10.00000000       0.34202014       0.00000000       0.00000000       0.93969262       1.00000000       1.50000000       1.00000000       2.44346095
2
Lattice="20.0 0.0 0.0 0.0 20.0 0.0 0.0 0.0 20.0" Properties=species:S:1:pos:R:3:quaternions:R:4:c_diameter[1]:R:1:c_diameter[2]:R:1:c_diameter[3]:R:1:angles:R:1 separation_distance=2.060886644219978 energy=-0.15353312229343655 pbc="F F F"
X       10.00000000      10.00000000      10.00000000       1.00000000       0.00000000       0.00000000       0.00000000       1.00000000       1.50000000       1.00000000       0.00000000
X       12.06088664      10.00000000      10.00000000       0.17364818       0.00000000       0.00000000       0.98480775       1.00000000       1.50000000       1.00000000       2.79252680
2
Lattice="20.0 0.0 0.0 0.0 20.0 0.0 0.0 0.0 20.0" Properties=species:S:1:pos:R:3:quaternions:R:4:c_diameter[1]:R:1:c_diameter[2]:R:1:c_diameter[3]:R:1:angles:R:1 separation_distance=2.060886644219978 energy=-0.13686456969273605 pbc="F F F"
X       10.00000000      10.00000000      10.00000000       1.00000000       0.00000000       0.00000000       0.00000000       1.00000000       1.50000000       1.00000000       0.00000000
X       12.06088664      10.00000000      10.00000000       0.00000000       0.00000000       0.00000000       1.00000000       1.00000000       1.50000000       1.00000000       3.14159265
2
Lattice="20.0 0.0 0.0 0.0 20.0 0.0 0.0 0.0 20.0" Properties=species:S:1:pos:R:3:quaternions:R:4:c_diameter[1]:R:1:c_diameter[2]:R:1:c_diameter[3]:R:1:angles:R:1 separation_distance=2.377946127946128 energy=-0.057517633619910975 pbc="F F F"
X       10.00000000      10.00000000      10.00000000       1.00000000       0.00000000       0.00000000       0.00000000       1.00000000       1.50000000       1.00000000       0.00000000
X       12.37794613      10.00000000      10.00000000       1.00000000       0.00000000       0.00000000       0.00000000       1.00000000       1.50000000       1.00000000       0.00000000
2
Lattice="20.0 0.0 0.0 0.0 20.0 0.0 0.0 0.0 20.0" Properties=species:S:1:pos:R:3:quaternions:R:4:c_diameter[1]:R:1:c_diameter[2]:R:1:c_diameter[3]:R:1:angles:R:1 separation_distance=2.377946127946128 energy=-0.06318634684158435 pbc="F F F"
X       10.00000000      10.00000000      10.00000000       1.00000000       0.00000000       0.00000000       0.00000000       1.00000000       1.50000000       1.00000000       0.00000000
X       12.37794613      10.00000000      10.00000000       0.98480775       0.00000000       0.00000000       0.17364818       1.00000000       1.50000000       1.00000000       0.34906585
2
Lattice="20.0 0.0 0.0 0.0 20.0 0.0 0.0 0.0 20.0" Properties=species:S:1:pos:R:3:quaternions:R:4:c_diameter[1]:R:1:c_diameter[2]:R:1:c_diameter[3]:R:1:angles:R:1 separation_distance=2.377946127946128 energy=-0.07983573651238098 pbc="F F F"
X       10.00000000      10.00000000      10.00000000       1.00000000       0.00000000       0.00000000       0.00000000       1.00000000       1.50000000       1.00000000       0.00000000
X       12.37794613      10.00000000      10.00000000       0.93969262       0.00000000       0.00000000       0.34202014       1.00000000       1.50000000       1.00000000       0.69813170
2
Lattice="20.0 0.0 0.0 0.0 20.0 0.0 0.0 0.0 20.0" Properties=species:S:1:pos:R:3:quaternions:R:4:c_diameter[1]:R:1:c_diameter[2]:R:1:c_diameter[3]:R:1:angles:R:1 separation_distance=2.377946127946128 energy=-0.1047622492006501 pbc="F F F"
X       10.00000000      10.00000000      10.00000000       1.00000000       0.00000000       0.00000000       0.00000000       1.00000000       1.50000000       1.00000000       0.00000000
X       12.37794613      10.00000000      10.00000000       0.86602540       0.00000000       0.00000000       0.50000000       1.00000000       1.50000000       1.00000000       1.04719755
2
Lattice="20.0 0.0 0.0 0.0 20.0 0.0 0.0 0.0 20.0" Properties=species:S:1:pos:R:3:quaternions:R:4:c_diameter[1]:R:1:c_diameter[2]:R:1:c_diameter[3]:R:1:angles:R:1 separation_distance=2.377946127946128 energy=-0.12654631934002575 pbc="F F F"
X       10.00000000      10.00000000      10.00000000       1.00000000       0.00000000       0.00000000       0.00000000       1.00000000       1.50000000       1.00000000       0.00000000
X       12.37794613      10.00000000      10.00000000       0.76604444       0.00000000       0.00000000       0.64278761       1.00000000       1.50000000       1.00000000       1.39626340
2
Lattice="20.0 0.0 0.0 0.0 20.0 0.0 0.0 0.0 20.0" Properties=species:S:1:pos:R:3:quaternions:R:4:c_diameter[1]:R:1:c_diameter[2]:R:1:c_diameter[3]:R:1:angles:R:1 separation_distance=2.377946127946128 energy=-0.1265463193400258 pbc="F F F"
X       10.00000000      10.00000000      10.00000000       1.00000000       0.00000000       0.00000000       0.00000000       1.00000000       1.50000000       1.00000000       0.00000000
X       12.37794613      10.00000000      10.00000000       0.64278761       0.00000000       0.00000000       0.76604444       1.00000000       1.50000000       1.00000000       1.74532925
2
Lattice="20.0 0.0 0.0 0.0 20.0 0.0 0.0 0.0 20.0" Properties=species:S:1:pos:R:3:quaternions:R:4:c_diameter[1]:R:1:c_diameter[2]:R:1:c_diameter[3]:R:1:angles:R:1 separation_distance=2.377946127946128 energy=-0.10476224920065023 pbc="F F F"
X       10.00000000      10.00000000      10.00000000       1.00000000       0.00000000       0.00000000       0.00000000       1.00000000       1.50000000       1.00000000       0.00000000
X       12.37794613      10.00000000      10.00000000       0.50000000       0.00000000       0.00000000       0.86602540       1.00000000       1.50000000       1.00000000       2.09439510
2
Lattice="20.0 0.0 0.0 0.0 20.0 0.0 0.0 0.0 20.0" Properties=species:S:1:pos:R:3:quaternions:R:4:c_diameter[1]:R:1:c_diameter[2]:R:1:c_diameter[3]:R:1:angles:R:1 separation_distance=2.377946127946128 energy=-0.07983573651238099 pbc="F F F"
X       10.00000000      10.00000000      10.00000000       1.00000000       0.00000000       0.00000000       0.00000000       1.00000000       1.50000000       1.00000000       0.00000000
X       12.37794613      10.00000000      10.00000000       0.34202014       0.00000000       0.00000000       0.93969262       1.00000000       1.50000000       1.00000000       2.44346095
2
Lattice="20.0 0.0 0.0 0.0 20.0 0.0 0.0 0.0 20.0" Properties=species:S:1:pos:R:3:quaternions:R:4:c_diameter[1]:R:1:c_diameter[2]:R:1:c_diameter[3]:R:1:angles:R:1 separation_distance=2.377946127946128 energy=-0.06318634684158439 pbc="F F F"
X       10.00000000      10.00000000      10.00000000       1.00000000       0.00000000       0.00000000       0.00000000       1.00000000       1.50000000       1.00000000       0.00000000
X       12.37794613      10.00000000      10.00000000       0.17364818       0.00000000       0.00000000       0.98480775       1.00000000       1.50000000       1.00000000       2.79252680
2
Lattice="20.0 0.0 0.0 0.0 20.0 0.0 0.0 0.0 20.0" Properties=species:S:1:pos:R:3:quaternions:R:4:c_diameter[1]:R:1:c_diameter[2]:R:1:c_diameter[3]:R:1:angles:R:1 separation_distance=2.377946127946128 energy=-0.057517633619910975 pbc="F F F"
X       10.00000000      10.00000000      10.00000000       1.00000000       0.00000000       0.00000000       0.00000000       1.00000000       1.50000000       1.00000000       0.00000000
X       12.37794613      10.00000000      10.00000000       0.00000000       0.00000000       0.00000000       1.00000000       1.00000000       1.50000000       1.00000000       3.14159265
2
Lattice="20.0 0.0 0.0 0.0 20.0 0.0 0.0 0.0 20.0" Properties=species:S:1:pos:R:3:quaternions:R:4:c_diameter[1]:R:1:c_diameter[2]:R:1:c_diameter[3]:R:1:angles:R:1 separation_distance=2.6950056116722783 energy=-0.029772231602534102 pbc="F F F"
X       10.00000000      10.00000000      10.00000000       1.00000000       0.00000000       0.00000000       0.00000000       1.00000000       1.50000000       1.00000000       0.00000000
X       12.69500561      10.00000000      10.00000000       1.00000000       0.00000000       0.00000000       0.00000000       1.00000000       1.50000000       1.00000000       0.00000000
2
Lattice="20.0 0.0 0.0 0.0 20.0 0.0 0.0 0.0 20.0" Properties=species:S:1:pos:R:3:quaternions:R:4:c_diameter[1]:R:1:c_diameter[2]:R:1:c_diameter[3]:R:1:angles:R:1 separation_distance=2.6950056116722783 energy=-0.03228673811423203 pbc="F F F"
X       10.00000000      10.00000000      10.00000000       1.00000000       0.00000000       0.00000000       0.00000000       1.00000000       1.50000000       1.00000000       0.00000000
X       12.69500561      10.00000000      10.00000000       0.98480775       0.00000000       0.00000000       0.17364818       1.00000000       1.50000000       1.00000000       0.34906585
2
Lattice="20.0 0.0 0.0 0.0 20.0 0.0 0.0 0.0 20.0" Properties=species:S:1:pos:R:3:quaternions:R:4:c_diameter[1]:R:1:c_diameter[2]:R:1:c_diameter[3]:R:1:angles:R:1 separation_distance=2.6950056116722783 energy=-0.03934307796369336 pbc="F F F"
X       10.00000000      10.00000000      10.00000000       1.00000000       0.00000000       0.00000000       0.00000000       1.00000000       1.50000000       1.00000000       0.00000000
X       12.69500561      10.00000000      10.00000000       0.93969262       0.00000000       0.00000000       0.34202014       1.00000000       1.50000000       1.00000000       0.69813170
2
Lattice="20.0 0.0 0.0 0.0 20.0 0.0 0.0 0.0 20.0" Properties=species:S:1:pos:R:3:quaternions:R:4:c_diameter[1]:R:1:c_diameter[2]:R:1:c_diameter[3]:R:1:angles:R:1 separation_distance=2.6950056116722783 energy=-0.049160162149992755 pbc="F F F"
X       10.00000000      10.00000000      10.00000000       1.00000000       0.00000000       0.00000000       0.00000000       1.00000000       1.50000000       1.00000000       0.00000000
X       12.69500561      10.00000000      10.00000000       0.86602540       0.00000000       0.00000000       0.50000000       1.00000000       1.50000000       1.00000000       1.04719755
2
Lattice="20.0 0.0 0.0 0.0 20.0 0.0 0.0 0.0 20.0" Properties=species:S:1:pos:R:3:quaternions:R:4:c_diameter[1]:R:1:c_diameter[2]:R:1:c_diameter[3]:R:1:angles:R:1 separation_distance=2.6950056116722783 energy=-0.05717377960981407 pbc="F F F"
X       10.00000000      10.00000000      10.00000000       1.00000000       0.00000000       0.00000000       0.00000000       1.00000000       1.50000000       1.00000000       0.00000000
X       12.69500561      10.00000000      10.00000000       0.76604444       0.00000000       0.00000000       0.64278761       1.00000000       1.50000000       1.00000000       1.39626340
2
Lattice="20.0 0.0 0.0 0.0 20.0 0.0 0.0 0.0 20.0" Properties=species:S:1:pos:R:3:quaternions:R:4:c_diameter[1]:R:1:c_diameter[2]:R:1:c_diameter[3]:R:1:angles:R:1 separation_distance=2.6950056116722783 energy=-0.0571737796098141 pbc="F F F"
X       10.00000000      10.00000000      10.00000000       1.00000000       0.00000000       0.00000000       0.00000000       1.00000000       1.50000000       1.00000000       0.00000000
X       12.69500561      10.00000000      10.00000000       0.64278761       0.00000000       0.00000000       0.76604444       1.00000000       1.50000000       1.00000000       1.74532925
2
Lattice="20.0 0.0 0.0 0.0 20.0 0.0 0.0 0.0 20.0" Properties=species:S:1:pos:R:3:quaternions:R:4:c_diameter[1]:R:1:c_diameter[2]:R:1:c_diameter[3]:R:1:angles:R:1 separation_distance=2.6950056116722783 energy=-0.04916016214999275 pbc="F F F"
X       10.00000000      10.00000000      10.00000000       1.00000000       0.00000000       0.00000000       0.00000000       1.00000000       1.50000000       1.00000000       0.00000000
X       12.69500561      10.00000000      10.00000000       0.50000000       0.00000000       0.00000000       0.86602540       1.00000000       1.50000000       1.00000000       2.09439510
2
Lattice="20.0 0.0 0.0 0.0 20.0 0.0 0.0 0.0 20.0" Properties=species:S:1:pos:R:3:quaternions:R:4:c_diameter[1]:R:1:c_diameter[2]:R:1:c_diameter[3]:R:1:angles:R:1 separation_distance=2.6950056116722783 energy=-0.03934307796369337 pbc="F F F"
X       10.00000000      10.00000000      10.00000000       1.00000000       0.00000000       0.00000000       0.00000000       1.00000000       1.50000000       1.00000000       0.00000000
X       12.69500561      10.00000000      10.00000000       0.34202014       0.00000000       0.00000000       0.93969262       1.00000000       1.50000000       1.00000000       2.44346095
2
Lattice="20.0 0.0 0.0 0.0 20.0 0.0 0.0 0.0 20.0" Properties=species:S:1:pos:R:3:quaternions:R:4:c_diameter[1]:R:1:c_diameter[2]:R:1:c_diameter[3]:R:1:angles:R:1 separation_distance=2.6950056116722783 energy=-0.03228673811423206 pbc="F F F"
X       10.00000000      10.00000000      10.00000000       1.00000000       0.00000000       0.00000000       0.00000000       1.00000000       1.50000000       1.00000000       0.00000000
X       12.69500561      10.00000000      10.00000000       0.17364818       0.00000000       0.00000000       0.98480775       1.00000000       1.50000000       1.00000000       2.79252680
2
Lattice="20.0 0.0 0.0 0.0 20.0 0.0 0.0 0.0 20.0" Properties=species:S:1:pos:R:3:quaternions:R:4:c_diameter[1]:R:1:c_diameter[2]:R:1:c_diameter[3]:R:1:angles:R:1 separation_distance=2.6950056116722783 energy=-0.029772231602534102 pbc="F F F"
X       10.00000000      10.00000000      10.00000000       1.00000000       0.00000000       0.00000000       0.00000000       1.00000000       1.50000000       1.00000000       0.00000000
X       12.69500561      10.00000000      10.00000000       0.00000000       0.00000000       0.00000000       1.00000000       1.00000000       1.50000000       1.00000000       3.14159265
2
Lattice="20.0 0.0 0.0 0.0 20.0 0.0 0.0 0.0 20.0" Properties=species:S:1:pos:R:3:quaternions:R:4:c_diameter[1]:R:1:c_diameter[2]:R:1:c_diameter[3]:R:1:angles:R:1 separation_distance=3.012065095398429 energy=-0.017518104871448413 pbc="F F F"
X       10.00000000      10.00000000      10.00000000       1.00000000       0.00000000       0.00000000       0.00000000       1.00000000       1.50000000       1.00000000       0.00000000
X       13.01206510      10.00000000      10.00000000       1.00000000       0.00000000       0.00000000       0.00000000       1.00000000       1.50000000       1.00000000       0.00000000
2
Lattice="20.0 0.0 0.0 0.0 20.0 0.0 0.0 0.0 20.0" Properties=species:S:1:pos:R:3:quaternions:R:4:c_diameter[1]:R:1:c_diameter[2]:R:1:c_diameter[3]:R:1:angles:R:1 separation_distance=3.012065095398429 energy=-0.0188354603362417 pbc="F F F"
X       10.00000000      10.00000000      10.00000000       1.00000000       0.00000000       0.00000000       0.00000000       1.00000000       1.50000000       1.00000000       0.00000000
X       13.01206510      10.00000000      10.00000000       0.98480775       0.00000000       0.00000000       0.17364818       1.00000000       1.50000000       1.00000000       0.34906585
2
Lattice="20.0 0.0 0.0 0.0 20.0 0.0 0.0 0.0 20.0" Properties=species:S:1:pos:R:3:quaternions:R:4:c_diameter[1]:R:1:c_diameter[2]:R:1:c_diameter[3]:R:1:angles:R:1 separation_distance=3.012065095398429 energy=-0.02240997054318972 pbc="F F F"
X       10.00000000      10.00000000      10.00000000       1.00000000       0.00000000       0.00000000       0.00000000       1.00000000       1.50000000       1.00000000       0.00000000
X       13.01206510      10.00000000      10.00000000       0.93969262       0.00000000       0.00000000       0.34202014       1.00000000       1.50000000       1.00000000       0.69813170
2
Lattice="20.0 0.0 0.0 0.0 20.0 0.0 0.0 0.0 20.0" Properties=species:S:1:pos:R:3:quaternions:R:4:c_diameter[1]:R:1:c_diameter[2]:R:1:c_diameter[3]:R:1:angles:R:1 separation_distance=3.012065095398429 energy=-0.027120589237466398 pbc="F F F"
X       10.00000000      10.00000000      10.00000000       1.00000000       0.00000000       0.00000000       0.00000000       1.00000000       1.50000000       1.00000000       0.00000000
X       13.01206510      10.00000000      10.00000000       0.86602540       0.00000000       0.00000000       0.50000000       1.00000000       1.50000000       1.00000000       1.04719755
2
Lattice="20.0 0.0 0.0 0.0 20.0 0.0 0.0 0.0 20.0" Properties=species:S:1:pos:R:3:quaternions:R:4:c_diameter[1]:R:1:c_diameter[2]:R:1:c_diameter[3]:R:1:angles:R:1 separation_distance=3.012065095398429 energy=-0.030777931985857272 pbc="F F F"
X       10.00000000      10.00000000      10.00000000       1.00000000       0.00000000       0.00000000       0.00000000       1.00000000       1.50000000       1.00000000       0.00000000
X       13.01206510      10.00000000      10.00000000       0.76604444       0.00000000       0.00000000       0.64278761       1.00000000       1.50000000       1.00000000       1.39626340
2
Lattice="20.0 0.0 0.0 0.0 20.0 0.0 0.0 0.0 20.0" Properties=species:S:1:pos:R:3:quaternions:R:4:c_diameter[1]:R:1:c_diameter[2]:R:1:c_diameter[3]:R:1:angles:R:1 separation_distance=3.012065095398429 energy=-0.030777931985857293 pbc="F F F"
X       10.00000000      10.00000000      10.00000000       1.00000000       0.00000000       0.00000000       0.00000000       1.00000000       1.50000000       1.00000000       0.00000000
X       13.01206510      10.00000000      10.00000000       0.64278761       0.00000000       0.00000000       0.76604444       1.00000000       1.50000000       1.00000000       1.74532925
2