48
Lattice="10.03803 0.0 0.0 0.0 6.05429 0.0 -0.8856276444519461 0.0 6.957722024842793" Properties=species:S:1:pos:R:3:forces:R:3 positionsangstrom=T cellangstrom=T kpts="2 3 3" energy=-4103.779202602321 stress="-0.353683252875042 3.2514788615021692 6.212556984090473 3.2514788615021692 3.854798043684184 -5.439578546687391 6.212556984090473 -5.439578546687391 -6.895464604076422" pbc="T T T"
C       3.45160000       2.99228000       4.37931000      -2.50057179      -0.34353705       1.79576942 
C       5.77533000       3.10710000       2.84410000       2.32311702       1.64054955       3.00789178 
C       5.31113000       0.32387100       6.04987000      -0.20298096      -0.84436371       1.87535872 
C       3.80365000       5.65017000       0.57050500      -1.13596317      -1.23322546      -2.55846920 
C       4.65206000       3.26050000       5.04358000       0.63574355      -1.19219861      -1.19738273 
C       4.55200000       2.99744000       2.30880000      -0.86189169      -0.57152379      -3.23291918 
C       4.13843000      -0.03007600       5.39222000      -1.98065700      -0.59695150      -2.06874509 
C       4.98869000       5.88234000       1.23691000      -2.20244584       0.24505785       1.14647950 
C       3.39089000       2.88200000       3.04065000      -1.95612713       0.95118897      -2.25979869 
C       5.85708000       3.35043000       4.32423000      -0.28279317      -2.33744141      -2.54592273 
C       6.11868000       6.12884000       0.53525800       0.03177448       1.47305831      -2.58492638 
C       2.91598000      -0.38362200       6.08583000      -0.39227413       0.39417906       0.41898250 
H       2.41911000       2.77540000       4.88421000       2.17007976       0.61310343      -0.25047516 
H       6.70350000       3.22176000       2.20730000      -1.06015082      -0.34058619       0.81569641 
H       6.20193000       0.75777500       5.49711000      -1.00770338      -0.87531620       0.95699092 
H       2.96079000       5.12591000       1.05507000       0.01861762       0.94613032       0.04471124 
H       4.60472000       3.04786000       6.07651000       0.42561055       0.46860712       1.40888098 
H       4.44979000       2.94226000       1.19562000       0.16879633      -0.04028252       0.77847865 
H       4.07521000      -0.19321000       4.21965000       0.27899128       0.93140535       2.28404472 
H       4.90905000       6.06777000       2.35674000       0.62134382      -0.76878482      -1.27470586 
H       2.38262000       2.93040000       2.46011000       1.68230505      -0.57812279       1.10959701 
H       6.86211000       3.10140000       4.72875000      -0.80409405       0.98096801       0.24534478 
H       6.78095000       6.29122000       1.29350000       3.41270389       0.90001885       0.94334350 
H       1.88672000      -0.56890700       5.51180000       2.57285042       0.26815536       1.03639896 
C       1.02118000       2.08650000       0.32303700      -3.92906053       0.27194131      -0.03756795 
C       8.33391000       3.98667000       6.56732000      -0.18704911       2.06038797      -1.46329763 
C       9.05257000       4.71712000       3.15591000      -1.13186354       1.36475107      -0.44781152 
C      -0.06701620       1.35577000       3.84839000      -1.60162252      -3.52103582      -0.30295011 
C       9.70971000       1.84275000       0.54415600      -1.62500131       0.72279805       1.98251231 
C      -0.35871600       4.23123000       6.28226000      -1.19492090      -1.39792242       0.80900948 
C       0.26824600       5.21033000       2.78128000      -0.56368707      -1.92410120       1.13823654 
C       8.64753000       0.84644500       4.17972000       0.61962658       3.49858957       1.03969100 
C       0.49464100       3.23761000       6.70173000       3.18756027       1.72857978      -1.59062076 
C       8.76379000       2.89264000       0.25166600       0.71406221      -3.13398541       0.92716303 
C       8.12371000       5.72781000       3.81000000       1.83743905      -4.08524765      -1.75355318 
C       0.74218100       0.40236600       3.19482000      -1.27569805       1.15749899      -0.44080577 
H       1.61284000       1.33512000       0.61731900       2.86403696      -2.40360569       0.77181563 
H       7.59524000       4.64786000       6.13353000      -0.12808109       0.50417655       0.32508398 
H       8.92358000       3.66515000       2.70075000      -0.88996018       1.65335545       1.18918194 
H       0.19071700       2.37648000       3.97624000       0.35711865       0.70395211       0.36213487 
H       9.45383000       1.00703000       1.27186000      -0.07933733       0.74846204      -1.50858095 
H      -0.04892770       5.07692000       5.71795000       0.23367017       0.66602241      -0.23157241 
H       0.85309100       4.40416000       2.27567000       0.17310704       1.25541795       0.12493021 
H       7.91186000       1.46636000       4.77119000       1.09447403      -0.13627803      -0.68738340 
H       1.56212000       3.35164000       6.45084000      -0.25638947       0.11520629       0.28429984 
H       7.70642000       2.75014000       0.49181700       0.14980615       0.06166279      -0.18051079 
H       7.09758000       5.53124000       4.08626000      -0.14736823      -0.46874056      -0.16793012 
H       1.54558000       0.76129600       2.62380000       1.82485709       0.46802657      -0.03609804 
24
Lattice="5.41296 0.0 0.0 0.0 6.39876 0.0 -1.4537932260496578 0.0 5.995066759285683" Properties=species:S:1:pos:R:3:forces:R:3 positionsangstrom=T cellangstrom=T kpts="4 3 3" energy=-2050.989943360444 stress="-12.10184400527858 -2.536437907968779 2.4260502389433793 -2.536437907968779 -3.9592758594999733 -3.986729787547741 2.4260502389433793 -3.986729787547741 -3.315061811767975" pbc="T T T"
C       1.16775000       2.22030000       0.19608000       3.31215649      -0.32303532       0.91541514 
C       3.00530000       4.00672000       5.89176000       1.26082164       1.85453818      -2.32073592 
C       0.64562000       5.69043000       2.81163000      -1.55672101      -2.68886198       0.92909881 
C       2.87631000       0.93349100       2.93184000       3.00943341       3.13358560       2.06916186 
C       0.16310200       2.30853000       1.15835000       0.56261826       1.56032236       0.92263069 
C       4.18505000       3.97817000       4.89218000      -4.55642331       0.10639949       2.96671246 
C       1.57450000       5.62428000       1.78225000       2.21517178       0.34087184      -1.29876959 
C       2.05608000       0.84602100       4.05096000      -1.99747100      -1.58071610       0.20337125 
C      -0.20062100       3.15104000       5.09096000       1.89500298      -2.01880499      -0.18466004 
C       4.52547000       3.34414000       1.07129000       5.42096401      -3.18960662      -4.28648849 
C       0.96441200       6.34186000       4.03076000       0.44178099       0.67732139      -1.57350904 
C       2.77890000       0.08609750       1.86638000      -1.23015325      -2.47138848      -1.57365122 
H       2.25334000       1.57359000       0.50303000      -3.58279297       1.76068748      -1.04157382 
H       2.15127000       4.72732000       5.73961000       1.06620294      -0.69865666      -0.28993776 
H      -0.31866000       4.92978000       2.81733000       2.60149097       2.18806952      -0.41079842 
H       3.72622000       1.80293000       3.11959000      -1.77199185      -2.49903685      -0.93728855 
H       0.35193600       1.87350000       2.18506000      -0.40997746      -0.05059342      -1.34481473 
H       4.08140000       4.60431000       4.06289000      -0.19249214       1.03900786      -1.06444096 
H       1.53761000       4.91964000       0.84491400      -0.38257927       1.34505152       1.95952767 
H       2.12069000       1.37638000       4.99773000       0.78438422       0.44258395      -0.32303866 
H       0.70820700       3.17622000       4.36580000      -1.51255767      -0.21863178       1.30717736 
H       3.88337000       3.28723000       1.79291000      -4.11183853       0.42234782       3.98144832 
H       0.32656800       6.23549000       4.89506000      -0.24944878       0.04668919       0.13259518 
H       3.57332000      -0.10660200       1.06020000      -1.01558073       0.82185575       1.26256896 
24
Lattice="5.5063 0.0 0.0 0.0 6.5091 0.0 -1.4788635836524346 0.0 6.098450421291189" Properties=species:S:1:pos:R:3:forces:R:3 positionsangstrom=T cellangstrom=T kpts="4 3 3" energy=-2053.4414233441803 stress="0.509943795330691 0.10596234708170203 -2.330970949534033 0.10596234708170203 3.5441194118614727 -4.7468321884914735 -2.330970949534033 -4.7468321884914735 10.487663439664141" pbc="T T T"
C       1.23272000       2.41991000       0.35954900       1.05223053      -1.28421457       0.57027912 
C       3.04148000       3.95592000       5.94203000       0.40725209       1.57079138      -2.57029757 
C       0.73761400       5.82533000       2.96584000      -0.54545665       0.25927631      -1.22130865 
C       2.98522000       0.88422200       2.96689000       2.16137066       0.44209698      -0.01542200 
C       0.19400100       2.46151000       1.27359000      -1.01512153       1.93644198      -1.76393966 
C       4.07869000       3.84300000       4.99096000       0.40710400       0.25839236       0.53824702 
C       1.60697000       5.75188000       1.85230000       0.35357284       0.06972243       1.47841084 
C       2.21925000       0.85099400       4.07136000      -1.34845798       0.60392845       2.52065855 
C      -0.25987800       3.05480000       5.25083000      -2.04873161       1.59097043      -2.24467237 
C       4.59112000       3.28451000       0.99205400       0.63913329      -1.73145325       1.59176439 
C       1.01856000       6.65322000       4.04618000       1.40761986      -0.87382059      -2.12466609 
C       2.74587000       0.04964420       1.89650000      -0.06054796      -0.45338310      -0.93251478 
H       2.10420000       1.81273000       0.55381700       0.03014877      -0.21368241       0.29806502 
H       2.17860000       4.61301000       5.76137000       0.34273692      -0.21483169      -0.24615365 
H      -0.28391400       5.40889000       2.87138000       0.73206945      -0.13989506       0.16647436 
H       3.87195000       1.53357000       3.06717000      -0.27139907      -0.44699108      -0.54308147 
H       0.13250800       1.91412000       2.14254000       0.52995058      -1.32372833       1.86545508 
H       3.98676000       4.50450000       4.14010000       0.09350746      -0.22871591      -0.51419280 
H       1.44881000       5.01562000       1.08281000      -0.14762663       0.03779626      -0.46731360 
H       2.52242000       1.42849000       4.97958000      -0.34670439      -0.29226435      -0.77365577 
H       0.45588500       2.90017000       4.39421000      -0.34679181       0.28598185       1.29077757 
H       3.73495000       3.33505000       1.62680000      -0.40252872      -0.07221717       0.85734521 
H       0.23609300       6.76048000       4.68996000      -1.68650007       0.32549690       2.42874312 
H       3.45460000       0.06231690       1.07394000       0.06316971      -0.10569758      -0.18900161 
24
Lattice="5.31627 0.0 0.0 0.0 6.28446 0.0 -1.4278273301982385 0.0 5.887990129470239" Properties=species:S:1:pos:R:3:forces:R:3 positionsangstrom=T cellangstrom=T kpts="4 3 3" energy=-2050.8621615014063 stress="2.0593987374884133 0.3894109522912665 5.882345034425772 0.3894109522912665 6.081204709042044 -1.1758187845158368 5.882345034425772 -1.1758187845158368 5.448502220231142" pbc="T T T"
C       1.09495000       2.40948000       0.04429440       2.04795051      -1.47942617      -0.04121608 
C       2.74818000       3.87646000       5.68382000      -1.34572978      -0.00161003       0.82402962 
C       0.78719200       5.58668000       2.96019000       1.17737774      -1.37752688      -2.86544824 
C       3.11259000       0.83601400       2.99516000      -3.97239778      -2.36066002       1.46396792 
C       0.20465800       2.32813000       1.07224000      -4.47130639       6.12443918      -5.94151978 
C       3.65522000       3.87023000       4.62814000      -0.56921134      -0.96392905       3.60993046 
C       1.70736000       5.36964000       1.89340000       1.08706154      -0.23846194       1.27150920 
C       2.18297000       0.76634400       4.12981000      -0.28449421      -1.73345383      -4.24160035 
C      -0.49897600       3.22386000       4.78333000       2.58636980      -1.41712369      -0.32301321 
C       4.30944000       3.15816000       0.97373600       0.15085748      -1.04450102       0.37833232 
C       0.95927400       6.25950000       4.07359000       3.43145547       3.22548637       5.30793519 
C       2.89335000      -0.11022700       1.95943000      -2.29701568      -0.04113535       1.40615639 
H       1.96648000       1.69568000       0.26743700      -0.82254994       1.45472711      -0.95600722 
H       1.85564000       4.50008000       5.56726000       0.22546501      -0.22581879      -0.02348164 
H      -0.11727800       5.16546000       2.91885000      -3.28642386      -2.39073474      -0.65438662 
H       3.92573000       1.49064000       3.00128000       1.15761829       0.75724184       0.15346946 
H       0.36918400       1.81788000       1.83707000       1.50823179      -4.58331783       6.48826147 
H       3.44410000       4.58529000       3.97792000      -0.51253932       2.66139667      -3.56300395 
H       1.62984000       4.32593000       1.35157000      -0.06382097       2.54744662       0.38969094 
H       2.35490000       1.34539000       4.93844000       0.72383189       1.81295108       2.62574934 
H       0.32269300       3.39055000       4.02618000      -0.76691948      -0.65051428       0.87679639 
H       3.40049000       3.18157000       1.71250000       2.11089937      -0.15120046      -1.06222056 
H       0.44910000       6.14120000       5.19642000       0.43924331       0.28942996      -3.47377327 
H       3.61907000      -0.24700300       1.24306000       1.74604632      -0.21370503      -1.65015751 
24
Lattice="5.5146 0.0 0.0 0.0 5.4951 0.0 -2.691604806030151 0.0 7.164695145514245" Properties=species:S:1:pos:R:3:forces:R:3 positionsangstrom=T cellangstrom=T kpts="4 4 3" energy=-2052.995152910137 stress="-3.8228330964213697 2.1407626126333157 -2.3110029768375107 2.1407626126333157 2.074779520652533 -0.046846001859468224 -2.3110029768375107 -0.046846001859468224 0.16226657665364735" pbc="T T T"
C       1.85761000       5.60129000       6.23389000      -1.52911970       1.85464128       0.63830565 
C       0.93496800       0.02280720       1.08512000      -0.19734253      -1.18926935      -0.02827058 
C      -0.99578600       1.72187000       4.40394000       0.04176116       1.58982604      -0.56708144 
C       3.92305000       3.68579000       2.54541000      -1.02182723      -1.06236865       0.46122651 
H       1.10442000       5.74846000       5.44313000       0.30535795      -0.52627262       0.14297936 
H       1.58504000      -0.20627900       1.93764000       0.00605598       0.72038172      -0.23581884 
H      -0.90501000       0.93428700       5.05929000       0.82166137      -1.63706622       1.78204769 
H       3.43724000       4.46633000       1.92510000       1.31679432       0.02554495       0.20930870 
C       2.75096000       4.54746000       6.23529000       0.04835424       0.65417014       1.81641076 
C       0.01428870       1.04476000       1.05551000      -1.66968247       1.62354221       0.10026535 
C      -2.18826000       1.67500000       3.71840000      -0.97838277      -1.78140749      -2.23079021 
C       5.09097000       3.77896000       3.35430000      -2.29219820      -1.36948987      -0.12715473 
H       2.60867000       3.72809000       5.58545000       0.24464159      -0.79158434      -0.95345385 
H      -0.07097600       1.85918000       1.76931000       0.68353240      -0.19537100       0.40571329 
H      -2.79574000       0.71510800       3.79905000       0.51917174       1.37877901       0.21214334 
H       5.52962000       4.70159000       3.40965000       1.60023618       2.12905548      -0.18604509 
C       4.48416000       1.10861000       0.11627200       1.64327081      -1.65451065      -2.26832859 
C      -1.86697000       4.48886000       7.31413000       1.12500126      -1.05898919       0.00475114 
C      -0.08071310       2.77757000       4.27165000      -0.00050034      -0.75279486      -0.41228966 
C       3.08105000       2.53280000       2.63033000       0.76644383       1.72315604       1.78433238 
H       3.78935000       1.95453000      -0.03913690       0.36747017      -0.48046917       0.57575686 
H      -1.20322000       3.59166000       7.51147000      -0.77795594       0.87662566      -0.69084951 
H       0.91664100       2.72086000       4.77566000      -1.00120029       0.38732527      -0.24176709 
H       2.13930000       2.57605000       2.09675000      -0.02154354      -0.46345489      -0.19139196 
24
Lattice="5.70025 0.0 0.0 0.0 5.61519 0.0 -2.7802099927145414 0.0 7.416273273640219" Properties=species:S:1:pos:R:3:forces:R:3 positionsangstrom=T cellangstrom=T kpts="4 4 3" energy=-2051.8528253033733 stress="4.050643154224763 -5.715580633650266 2.4075009029629664 -5.715580633650266 -3.56526342301903 -3.2459633304207367 2.4075009029629664 -3.2459633304207367 -5.8188900151462315" pbc="T T T"
C       1.84305000       5.15903000       6.54472000      -2.47087271       1.62756290      -1.63639747 
C       1.01454000       0.32766400       0.88830900       1.29687315      -3.50347981      -1.48374897 
C      -0.10590200       2.93007000       4.39167000      -2.04263013       1.04843815      -0.04593535 
C       3.17506000       2.80333000       2.97797000       0.30978694      -0.95201018      -1.35051358 
H       1.21139000       4.75737000       5.70107000      -0.49066463       1.18801054       1.24137432 
H       1.85867000       0.51488700       1.67401000      -1.63622624       0.00000797      -1.67249860 
H       0.90950900       2.94518000       4.73119000       0.44517228      -0.39795575       0.52971096 
H       2.44558000       2.68476000       2.06906000       0.78136626       0.05718084       2.12628665 
C       2.87533000       4.33828000       6.69546000       1.70200665       0.49691549       1.78481317 
C      -0.12036700       1.09090000       0.63635500       2.83878512       2.82570797       3.73981930 
C      -1.04192000       1.87692000       4.64271000       3.63450893      -0.68425540      -0.95025463 
C       4.00476000       3.93292000       2.87624000      -0.60867933      -0.38277004       0.79298405 
H       2.78414000       3.36053000       6.36868000       0.40700115      -1.80653540      -1.27108420 
H      -0.07007040       2.05953000       1.22542000      -0.74366847      -0.84320002      -0.69079629 
H      -0.56320100       0.92557000       4.92446000      -0.48925746       0.28805262       1.04185690 
H       3.64833000       4.66029000       2.16239000       0.44499822       0.53339226      -0.18376452 
C       4.59468000       0.80024800      -0.20746400       0.19550779      -3.50917095      -1.90075866 
C      -1.75137000       4.71094000       7.48026000       2.83501742      -0.36651141       0.96187165 
C      -0.53689400       4.06965000       3.67256000       1.12411346      -0.52435817      -1.11043133 
C       3.56672000       1.72240000       3.85232000      -3.34273309       1.29179907      -0.84153395 
H       3.81515000       1.42788000      -0.32641700      -2.59966420       2.16736930      -0.51251644 
H      -0.86634200       3.93940000       7.24140000      -1.28495942       1.84162378       1.51083426 
H       0.22507800       4.88191000       3.44284000      -1.11358325      -0.77566663       0.38549310 
H       2.85143000       0.88208000       4.04242000       0.80780081       0.37985235      -0.46480986 
48
Lattice="7.16347 0.0 0.0 0.0 9.04404 0.0 0.0 0.0 6.57463" Properties=species:S:1:pos:R:3:forces:R:3 positionsangstrom=T cellangstrom=T kpts="3 2 3" energy=-4100.618909287585 stress="16.74991118780384 -4.461923853969367 -3.860821481846401 -4.461923853969367 19.23058285102828 9.68842489564231 -3.860821481846401 9.68842489564231 8.496388441360722" pbc="T T T"
C       6.61240000       1.38444000       0.13829400       2.09011790     -10.20441273      -1.79875936 
C       0.45448100       7.71581000       6.52951000      -0.45422694       4.54520610       0.44260400 
C       3.79108000       7.69179000       3.32145000       2.36740660       2.46236210      -2.23317825 
C       3.30621000       1.48184000       3.28931000       3.01217189       4.63843459      -3.20525024 
C       0.62975200       5.70340000       3.17121000      -0.17623093       2.93042287      -1.63591899 
C       6.68745000       3.23576000       3.44784000      -1.09133368       1.37707308      -0.68324598 
C       3.25833000       3.05718000       6.52731000      -2.05933690      -2.02965453       0.30267603 
C       3.84634000       5.76354000      -0.02685040      -6.53725103     -14.88920278      -2.30353317 
H       6.25235000       2.24596000       0.14284500      -2.84069442       7.57778998       0.32810245 
H       0.95797000       6.85529000       6.33614000       1.36719490      -2.71608071       0.10029234 
H       3.93145000       6.62139000       3.40542000       0.43172206      -0.09868695      -0.50061840 
H       3.22860000       2.60328000       3.11888000      -0.83829976      -1.17091630       0.94337847 
H       1.07510000       6.76235000       3.01925000      -0.57547584      -1.70617493       0.33703730 
H       6.43081000       2.24382000       3.65940000      -1.07875353      -1.50348245      -0.52858121 
H       2.82785000       2.02975000       6.52971000       0.86935252       0.32006415      -0.32593039 
H       4.30063000       6.46777000       0.12143900       7.34308932      14.48270299       2.84835708 
C       0.39863600       0.87304100       1.06073000      -1.13543480       5.26888217       0.05980440 
C       6.70621000       8.16146000       5.59895000      -1.41080880       3.60979291       1.99765483 
C       2.85207000       8.30189000       4.04885000      -1.26166933       2.57734034       1.38314295 
C       4.35280000       1.03024000       2.47164000       0.03408847      -1.26891085      -1.36268390 
C       6.75183000       5.34389000       2.22760000       0.25053893       1.32439193       1.64590439 
C       0.41320100       3.68868000       4.35316000       3.87660898      -0.36477488       0.64793469 
C       4.14385000       3.50082000       5.61314000      -1.44205774       7.86886340       5.76439899 
C       2.91035000       5.17516000       0.81300100      -2.00064811       5.11098656       2.79431530 
H       0.74214600       1.69050000       1.80660000      -0.25163525      -1.82323164      -0.78599167 
H       6.16921000       7.74189000       4.83422000      -0.38273996      -2.38504360      -1.97510393 
H       2.17458000       7.94257000       4.77936000      -0.32522050      -1.62429914       0.49716489 
H       4.81095000       1.70821000       1.64096000      -0.68815808      -1.32966244       1.80347425 
H       6.29075000       6.12548000       1.50598000       1.06620988      -1.46910498       1.10654202 
H       1.04414000       2.94951000       4.89231000      -1.11947210       0.25508901       0.44124312 
H       4.40178000       2.90104000       4.96671000       3.33938269      -5.56897708      -6.56890184 
H       2.35198000       5.95656000       1.53939000       1.20703337      -1.95832054      -1.41973259 
C       0.92721700       8.71517000       0.93051500      -3.95983382      -2.50344577      -5.12277713 
C       6.10047000       0.43436700       5.72521000       3.40857393       0.44882711       2.81820240 
C       2.61715000       0.67238100       4.03496000       1.75153229      -4.07598474      -0.93122255 
C       4.57218000       8.69678000       2.46357000       0.61863645      -2.63836652      -2.31664812 
C       6.16916000       4.11571000       2.46615000      -1.64535777      -0.85398709      -1.63656331 
C       1.07581000       4.91458000       4.21375000      -1.98551948      -0.03152148      -1.67786424 
C       4.51995000       4.89843000       5.71479000       1.45084809      -0.48151869      -2.86551868 
C       2.57768000       3.88279000       0.82376300       0.00782978      -1.39777150      -0.00443258 
H       1.54471000       8.40107000       1.57673000       4.95180976      -2.24629320       4.69461219 
H       5.40643000       0.74960000       5.00933000      -1.14659674       0.34509591      -0.98018280 
H       1.88089000       1.00976000       4.57544000      -4.08673966       1.66993136       3.08302432 
H       5.21327000       8.33629000       1.47652000      -1.23604982       0.46238325       2.85447091 
H       5.28378000       3.88363000       1.76773000       1.28245645      -0.19303078       1.18302466 
H       1.90712000       5.20223000       4.78337000       0.98418832       0.34011080       0.96651763 
H       5.34527000       5.42941000       5.02787000      -1.60247253      -1.63794245       1.35325412 
H       1.84648000       3.37361000       1.42970000      -0.37877480       0.55504790       0.46550586 
48
Lattice="7.31119 0.0 0.0 0.0 9.23054 0.0 0.0 0.0 6.7102" Properties=species:S:1:pos:R:3:forces:R:3 positionsangstrom=T cellangstrom=T kpts="3 2 3" energy=-4103.360936776607 stress="1.382482458666658 -1.5209385966323712 -0.5895819928990438 -1.5209385966323712 2.722554929127602 -1.431960778239991 -0.5895819928990438 -1.431960778239991 -4.959473914879969" pbc="T T T"
C       7.06273000       1.28634000       0.10121400      -2.75996046       3.24040135      -1.02941018 
C       0.41535300       7.85044000       6.36352000      -0.60547651       7.86087009       3.23019407 
C       4.26376000       7.87480000       3.34125000      -4.24204541      -2.65188256       1.76332286 
C       3.25581000       1.28148000       3.09637000      -1.82247188       2.36694586       0.37676728 
C       0.59967600       6.05351000       3.50123000      -3.50050581      -6.69639004      -1.00695210 
C       6.96035000       3.46646000       3.44278000      -0.18197478      -0.05146091      -0.68551498 
C       3.09556000       3.19306000       6.74093000       1.06834030       4.95373860       0.44586159 
C       3.70696000       5.87984000       0.13641200       1.48491290       2.23507238       1.87258218 
H       6.77456000       2.40401000       0.22114400       0.34418060      -1.64342096      -0.25077701 
H       0.61355800       6.95670000       6.12176000       2.16723997      -6.76543395      -1.12087464 
H       4.28701000       6.81072000       3.10569000       0.75465223      -0.37031973       0.77140014 
H       2.74982000       2.37117000       2.82283000       1.44126301      -2.60643598       1.31847608 
H       0.81151500       6.98226000       3.51888000       2.05418287       6.42462742       0.19198409 
H       6.69606000       2.40543000       3.42110000      -0.32751084       0.19326013      -0.13671949 
H       2.90935000       2.21099000       6.79964000      -0.88114875      -3.58846560      -0.15054483 
H       4.09249000       6.98892000       0.36304400      -0.99824943      -2.20572709      -0.94851116 
C       0.67397300       0.78695200       0.95683400       0.62805672      -1.76436133      -1.25370637 
C       6.74037000       8.42297000       5.61103000      -1.10912315       2.38792427      -0.60740072 
C       3.19108000       8.27552000       4.23037000      -1.13263899       1.17782254      -0.07246580 
C       4.16920000       0.79295900       2.24217000       3.52306134      -1.52124595      -2.78862287 
C       6.84190000       5.71128000       2.59030000       1.55380564       0.33444922       1.25635306 
C       0.67911100       3.81659000       4.30884000      -0.70700684      -2.54450579       2.77839245 
C       4.11927000       3.69933000       5.90085000      -0.82100265      -0.34486477       1.59356725 
C       2.64096000       5.42451000       0.97688400       4.89847657      -3.81818038      -4.78711357 
H       1.22707000       1.48344000       1.60068000      -0.18425843      -0.79885362       0.09012800 
H       6.30660000       7.87804000       4.78522000      -0.31091925      -0.20416058      -0.02602394 
H       2.35532000       7.63553000       4.87390000       3.04549443       1.29322604      -1.39086423 
H       4.64763000       1.44361000       1.45074000      -0.82141275      -0.70278612       0.65348417 
H       6.50661000       6.51847000       1.95176000      -0.22978755      -0.16472833      -0.29433074 
H       0.93248000       3.05929000       5.20554000      -0.11801779       1.49075137      -2.34617931 
H       4.61401000       2.99164000       5.23509000       0.15383944       0.34098240      -0.06969775 
H       2.16713000       6.13858000       1.40094000      -3.49496843       4.11412578       3.43841082 
C       1.06131000       8.68184000       0.64283500      -3.04799843       1.08185865      -1.39618770 
C       6.41353000       0.57859100       5.77946000      -0.29385278      -0.29746621       0.15201885 
C       2.82163000       0.42275400       4.11335000      -1.72516150      -0.55208290       2.79340770 
C       4.66856000       8.64076000       2.32936000       0.30460359       3.12011559      -0.64217079 
C       6.37637000       4.41123000       2.55111000      -0.01550736      -1.69165976      -1.27285081 
C       1.12623000       5.10192000       4.37623000       1.02988892       1.96286522      -0.56862693 
C       4.52175000       5.03960000       6.09173000      -1.95192723      -1.16292711      -0.26566448 
C       2.40646000       4.07138000       0.94242000      -0.66769260      -1.46589830      -0.81179707 