36
Lattice="30.76185709 0.0 0.0 0.0 30.76185709 0.0 0.0 0.0 30.76185709" Properties=species:S:1:pos:R:3 dft_energy_ryd=-267.15151335 molecule_idx=10 crystal_idx=9 pbc="F F F"
H       12.08822598      13.84079959      21.57250697
H       12.31200505      12.93131562      19.27998831
C       12.69857687      14.36032244      20.83393915
C       12.82143783      13.85363751      19.56508405
H       13.26381691      15.95235995      22.21832704
H       13.27420942      13.08754535      17.01211271
C       13.36949337      15.57209738      21.20233123
C       13.62082092      14.52021441      18.57939018
C       13.77522035      14.01821931      17.28890078
C       14.13854121      16.24851216      20.28939592
H       14.23761839      13.24148209      14.74848205
C       14.29376098      15.75987627      18.95091146
C       14.56926543      14.67927109      16.32318534
H       14.65421593      17.17050440      20.56458458
C       14.73750788      14.17288396      15.02438887
C       15.07070106      16.42615044      18.00546271
H       15.18550260      13.40803116      12.47750582
C       15.23515695      15.92770198      16.69234801
C       15.52669908      14.83418187      14.06960003
H       15.57631395      17.35383685      18.28437403
C       15.69108726      14.33570526      12.75651227
C       16.02432289      16.58906193      15.73753577
H       16.10770589      13.59138939      10.19724480
C       16.19256740      16.08262772      14.43867565
C       16.46813148      15.00189227      11.81102104
H       16.52425199      17.52043433      16.01338207
C       16.62343406      14.51333784      10.47251272
C       16.98658580      16.74347064      13.47279012
C       17.14120275      16.24145545      12.18236156
C       17.39227857      15.18988014       9.55956609
H       17.48759154      17.67414690      13.74963637
H       17.49799790      14.80954386       8.54358414
C       17.94047802      16.90822969      11.19673616
C       18.06322407      16.40166781       9.92787964
H       18.44987352      17.83055140      11.48188155
H       18.67360422      16.92108901       9.18928830
15
Lattice="14.11450223 0.0 0.0 0.0 14.11450223 0.0 0.0 0.0 14.11450223" Properties=species:S:1:pos:R:3 dft_energy_ryd=-227.22086794 molecule_idx=27 crystal_idx=24 pbc="F F F"
H        5.03732170       6.03085710       8.31181764
H        5.27489726       7.57926059       9.99166336
O        6.03116532       8.11916730       9.69298563
C        5.89424013       6.52920531       7.85461050
H        5.96444019       5.22946459       6.11819631
C        6.48785951       7.63175047       8.49407230
C        6.40130489       6.07875791       6.63930216
O        7.46979178       5.30170742       4.23842414
C        7.50249475       6.73254569       6.07795851
C        7.59008685       8.28468469       7.91712272
H        8.02832034       9.13979792       8.42864477
N        8.05165605       6.24878191       4.79869576
C        8.10146632       7.83006655       6.70748994
O        9.06652415       6.81371717       4.35132940
H        8.95719745       8.30900214       6.23645360
16
Lattice="14.82196312 0.0 0.0 0.0 14.82196312 0.0 0.0 0.0 14.82196312" Properties=species:S:1:pos:R:3 dft_energy_ryd=-184.9478456 molecule_idx=29 crystal_idx=26 pbc="F F F"
H        5.21249122       6.81427305       9.12319498
H        5.91689946       5.29460280       6.72943112
N        6.01782633       7.32941194       8.78865393
O        6.07679571       8.94642707      10.51917890
C        6.51051240       8.44621817       9.48012156
C        6.70534142       6.04619780       6.69908817
C        6.79014174       7.04554229       7.66400125
N        7.61230710       8.85977373       8.71633223
H        7.63813818       5.27066870       4.91536490
C        7.67419386       6.04288789       5.68263908
C        7.81212155       8.02490518       7.61881190
H        8.18746918       9.64531460       8.99542423
C        8.68460737       7.01415586       5.63707892
C        8.76691810       8.02600166       6.60703987
H        9.41847291       6.98793433       4.83293022
H        9.55146841       8.78138994       6.56641369
19
Lattice="17.19265466 0.0 0.0 0.0 17.19265466 0.0 0.0 0.0 17.19265466" Properties=species:S:1:pos:R:3 dft_energy_ryd=-309.71919783 molecule_idx=32 crystal_idx=29 pbc="F F F"
H        5.92325623       8.88865892      10.34499651
H        6.57747097       6.47523956      10.01851506
C        6.81130433       8.61261713       9.77827327
C        7.17028974       7.28830180       9.60320718
O        7.22359298      10.91824136       9.45164240
C        7.59967322       9.65002896       9.23044293
H        7.94315617      11.48991374       8.99757147
O        8.02164487       4.70526131       9.23440193
C        8.33265109       6.98185230       8.87408976
N        8.74125916       5.57748411       8.71615060
C        8.76589164       9.32752063       8.46302522
C        9.11764935       7.98070464       8.30798927
O        9.25534771      11.64713506       8.13587588
C        9.54925065      10.44460384       7.87929053
O        9.78576583       5.33957300       8.07833125
H       10.00725686       7.66697325       7.76357181
N       10.59741036      10.16453251       7.05943015
H       10.81548938       9.22532786       6.75188834
H       11.09185874      10.94624930       6.64152572
13
Lattice="13.58266317 0.0 0.0 0.0 13.58266317 0.0 0.0 0.0 13.58266317" Properties=species:S:1:pos:R:3 dft_energy_ryd=-195.68699924 molecule_idx=92 crystal_idx=80 pbc="F F F"
H        4.65078022       5.66392019       7.42855360
N        5.47881254       6.08781264       4.83295217
C        5.60681933       6.17269481       7.31230859
H        5.99543350       6.40374605       9.41536660
C        6.10824630       6.42539782       6.02277712
N        6.10925916       6.41728193       3.77710598
C        6.36015416       6.58372567       8.40433680
C        7.35979095       7.08230925       5.83806649
C        7.60392862       7.23117602       8.22304305
S        7.63746811       7.22405688       4.15050600
C        8.11729008       7.48405111       6.95384705
H        8.17886214       7.53556075       9.09824602
H        9.08046549       7.97557743       6.83020118
26
Lattice="21.844041 0.0 0.0 0.0 21.844041 0.0 0.0 0.0 21.844041" Properties=species:S:1:pos:R:3 dft_energy_ryd=-405.17626114 molecule_idx=109 crystal_idx=92 pbc="F F F"
H        7.47135620      14.09771942      10.00006044
H        7.75050029      12.35669079      11.72940096
C        8.37386439      13.48738590      10.00641927
C        8.52774382      12.51046243      10.97887509
S        8.97727830      10.13036103      13.29924045
H        9.24541224      14.48060036       8.25369503
C        9.36635789      13.70836260       9.01434232
C        9.69009620      11.68746145      11.01695964
O       10.06867352       8.09257808      14.73025104
C        9.96247191      10.66077694      11.94724545
C       10.21462562       8.84352431      13.77815102
C       10.50376272      12.92163453       9.02475907
C       10.68270453      11.91437426      10.00545726
C       11.16133011       9.92964638      11.83858503
C       11.34023980       8.92242057      12.81924255
C       11.62943811      13.00048266       8.06606585
C       11.88156335      11.18325813       9.89678615
O       11.77541659      13.75157817       7.11371320
C       12.15393751      10.15657993      10.82707588
C       12.47770248       8.13564212      12.82970702
H       12.59861810       7.36343938      13.59032831
S       12.86675557      11.71365932       8.54478924
C       13.31629760       9.33355135      10.86517386
C       13.47016168       8.35667165      11.83760587
H       14.09354052       9.48735740      10.11463202
H       14.37268399       7.74631396      11.84397095
17
Lattice="16.32922685 0.0 0.0 0.0 16.32922685 0.0 0.0 0.0 16.32922685" Properties=species:S:1:pos:R:3 dft_energy_ryd=-250.07438458 molecule_idx=127 crystal_idx=109 pbc="F F F"
H        5.46750426       7.27303507      10.33086495
H        6.15330039       6.18644494       8.16516022
C        6.32348764       7.65634384       9.77552651
H        6.71511439       9.21533492      11.21231872
C        6.69813564       7.04029226       8.56656024
C        7.03115814       8.75650995      10.27588106
C        7.79173909       7.56260553       7.89250618
C        8.14022997       9.28131804       9.58701573
O        8.09556759       6.20426880       5.84400447
C        8.50265905       8.66626682       8.39636649
C        8.40018490       7.12300616       6.59251514
H        8.69388138      10.14015369       9.96517848
N        9.45122612       8.04757438       6.40985580
C        9.59766610       8.98252078       7.44062100
O       10.32007893       8.03856697       5.33712517
O       10.49267718       9.83385898       7.43610301
H       10.92381740       8.79032705       5.57082501
24
Lattice="22.40683476 0.0 0.0 0.0 22.40683476 0.0 0.0 0.0 22.40683476" Properties=species:S:1:pos:R:3 dft_energy_ryd=-473.16511884 molecule_idx=137 crystal_idx=118 pbc="F F F"
N        6.68484161       9.07441217      12.02963435
N        7.41772639      11.28200188      11.35265735
O        7.43772667       7.94577209      12.36507875
C        7.60667079       9.98217609      11.73088273
S        8.31888249      13.63865669      10.71447577
C        8.53321625      11.95330730      11.13497869
N        8.81440200       8.15007091      12.27091632
C        8.91225084       9.41137022      11.87405344
N        9.84884559      14.22681403      10.43302265
C        9.88009423      11.35917131      11.25530086
N       10.06172115      10.11009918      11.62425375
C       10.90731318      13.49988192      10.56549429
N       11.02021833      12.14055640      10.96187256
H       12.19258367       9.63550889      11.66308988
C       12.37473185      11.68654978      11.00611727
S       12.48046189      14.20305125      10.22401038
C       12.87127624      10.42408303      11.36393726
C       13.27980576      12.70174824      10.62403614
C       14.25367978      10.21100260      11.32953653
H       14.63797159       9.23139552      11.61082465
C       14.65710734      12.48246905      10.58899903
C       15.14201724      11.22153225      10.94655976
H       15.33424973      13.28068151      10.28643175
H       16.21422245      11.02970470      10.92585299
15
Lattice="14.38895257 0.0 0.0 0.0 14.38895257 0.0 0.0 0.0 14.38895257" Properties=species:S:1:pos:R:3 dft_energy_ryd=-225.14200071 molecule_idx=164 crystal_idx=143 pbc="F F F"
H        4.61127936       8.47422391       7.12537533
H        5.28931022       9.24337482       8.51232919
N        5.44291163       8.75507681       7.63678066
N        5.60111660       6.73623695       5.58752713
S        6.15416341       5.55624270       4.60709372
C        6.53784259       7.91843575       7.54621192
C        6.59191682       6.95354302       6.48598214
H        7.64190763       8.68927189       9.21812174
N        7.62466898       5.26563701       5.24020988
C        7.64326743       7.97839526       8.39022016
C        7.75750827       6.11357297       6.29780993
C        8.78143383       7.14924268       8.19310907
C        8.87274486       6.22424767       7.16800159
H        9.61699102       7.26095535       8.88636016
H        9.75008161       5.59868747       7.02201162
24
Lattice="24.58207938 0.0 0.0 0.0 24.58207938 0.0 0.0 0.0 24.58207938" Properties=species:S:1:pos:R:3 dft_energy_ryd=-322.40295485 molecule_idx=169 crystal_idx=147 pbc="F F F"
O        9.45728756      10.82926323      16.16642698
H        9.71111615      10.10758688      16.77218175
H        9.95723137      16.53170543       9.46473847
H        9.46625437      12.41273281      14.38946544
N       10.54101987      10.86412555      15.26472820
H       10.21439842      13.65808852      12.48695778
C       10.36669202      11.78310983      14.37447555
O       10.79555714      16.05031756       9.33553805
N       10.76040965      15.10973090      10.38683908
C       11.11424822      13.04769148      12.40264292
C       11.35441033      12.01753920      13.31948383
C       11.81519394      14.36579086      10.36931934
C       12.02831404      13.30872556      11.35860036
H       12.58555952      14.50966066       9.60000519
C       12.53220687      11.24618736      13.20321801
H       12.71910121      10.44942545      13.92400075
C       13.18882873      12.53318873      11.25255923
C       13.45315356      11.50334569      12.18109422
H       13.90241453      12.71925564      10.44899129
H       14.80182614       9.89033155      12.85337838
C       14.67493010      10.69879401      12.12057516
N       15.58983533      10.94166061      11.24250959
O       16.67335695      10.05099982      11.38340705
H       17.28160663      10.35569529      10.68381593
14
Lattice="14.70602942 0.0 0.0 0.0 14.70602942 0.0 0.0 0.0 14.70602942" Properties=species:S:1:pos:R:3 dft_energy_ryd=-178.98907215 molecule_idx=201 crystal_idx=174 pbc="F F F"
O        4.21272291       8.59244798       7.68411412
O        4.70865019       5.61549270       6.12895332
C        5.15304235       7.87920157       7.40522863
C        5.38731879       6.45567370       6.67925788
C        6.65356063       7.91780994       7.58837361
C        6.85693912       6.66490713       6.97053319
H        7.56677254       9.65870548       8.54526542
C        7.71311799       8.68679496       8.07511090
C        8.13037705       6.10999072       6.82163445
H        8.29968258       5.14164800       6.35317990
C        8.99097860       8.14022113       7.91449838
C        9.19443204       6.87837621       7.30580944
H        9.86109851       8.69772100       8.26184176
H       10.21351262       6.50321538       7.20840497
