36
Lattice="47.86952688 0.0 0.0 0.0 47.86952688 0.0 0.0 0.0 47.86952688" Properties=species:S:1:pos:R:3 dft_energy_ryd=-267.15151335 molecule_idx=10 crystal_idx=9 pbc="F F F"
H       20.63175603      22.38432964      30.11603702
H       20.85553510      21.47484567      27.82351836
C       21.24210692      22.90385249      29.37746920
C       21.36496788      22.39716756      28.10861410
H       21.80734696      24.49589000      30.76185709
H       21.81773947      21.63107540      25.55564276
C       21.91302342      24.11562743      29.74586128
C       22.16435097      23.06374446      27.12292023
C       22.31875040      22.56174936      25.83243083
C       22.68207126      24.79204221      28.83292597
H       22.78114844      21.78501214      23.29201210
C       22.83729103      24.30340632      27.49444151
C       23.11279548      23.22280114      24.86671539
H       23.19774598      25.71403445      29.10811463
C       23.28103793      22.71641401      23.56791892
C       23.61423111      24.96968049      26.54899276
H       23.72903265      21.95156121      21.02103587
C       23.77868700      24.47123203      25.23587806
C       24.07022913      23.37771192      22.61313008
H       24.11984400      25.89736690      26.82790408
C       24.23461731      22.87923531      21.30004232
C       24.56785294      25.13259198      24.28106582
H       24.65123594      22.13491944      18.74077485
C       24.73609745      24.62615777      22.98220570
C       25.01166153      23.54542232      20.35455109
H       25.06778204      26.06396438      24.55691212
C       25.16696411      23.05686789      19.01604277
C       25.53011585      25.28700069      22.01632017
C       25.68473280      24.78498550      20.72589161
C       25.93580862      23.73341019      18.10309614
H       26.03112159      26.21767695      22.29316642
H       26.04152795      23.35307391      17.08711419
C       26.48400807      25.45175974      19.74026621
C       26.60675412      24.94519786      18.47140969
H       26.99340357      26.37408145      20.02541160
H       27.21713427      25.46461906      17.73281835
15
Lattice="24.06600504 0.0 0.0 0.0 24.06600504 0.0 0.0 0.0 24.06600504" Properties=species:S:1:pos:R:3 dft_energy_ryd=-227.22086794 molecule_idx=27 crystal_idx=24 pbc="F F F"
H       10.01202602      11.00556141     -10.77738890
H       10.24960158      12.55396490      -9.09754318
O       11.00586964      13.09387161      -9.39622091
C       10.86894445      11.50390962     -11.23459604
H       10.93914451      10.20416890     -12.97101023
C       11.46256383      12.60645478     -10.59513424
C       11.37600921      11.05346222     -12.44990438
O       12.44449610      10.27641173     -14.85078240
C       12.47719907      11.70725000     -13.01124803
C       12.56479117      13.25938900     -11.17208382
H       13.00302466      14.11450223     -10.66056177
N       13.02636037      11.22348622     -14.29051078
C       13.07617064      12.80477086     -12.38171660
O       14.04122847      11.78842148     -14.73787714
H       13.93190177      13.28370645     -12.85275294
16
Lattice="25.17737796 0.0 0.0 0.0 25.17737796 0.0 0.0 0.0 25.17737796" Properties=species:S:1:pos:R:3 dft_energy_ryd=-184.9478456 molecule_idx=29 crystal_idx=26 pbc="F F F"
H       10.38913974      11.99092157     -10.87541666
H       11.09354798      10.47125132     -13.26918052
N       11.19447485      12.50606046     -11.20995771
O       11.25344423      14.12307559      -9.47943274
C       11.68716092      13.62286669     -10.51849008
C       11.88198994      11.22284632     -13.29952347
C       11.96679026      12.22219081     -12.33461039
N       12.78895562      14.03642225     -11.28227941
H       12.81478670      10.44731722     -15.08324674
C       12.85084238      11.21953641     -14.31597256
C       12.98877007      13.20155370     -12.37979974
H       13.36411770      14.82196312     -11.00318741
C       13.86125589      12.19080438     -14.36153272
C       13.94356662      13.20265018     -13.39157177
H       14.59512143      12.16458285     -15.16568142
H       14.72811693      13.95803846     -13.43219795
19
Lattice="28.286110439999998 0.0 0.0 0.0 28.286110439999998 0.0 0.0 0.0 28.286110439999998" Properties=species:S:1:pos:R:3 dft_energy_ryd=-309.71919783 molecule_idx=32 crystal_idx=29 pbc="F F F"
H       11.46877583      14.43417852     -12.39317775
H       12.12299057      12.02075916     -12.71965920
C       12.35682393      14.15813673     -12.95990099
C       12.71580934      12.83382140     -13.13496708
O       12.76911258      16.46376096     -13.28653186
C       13.14519282      15.19554856     -13.50773133
H       13.48867577      17.03543334     -13.74060279
O       13.56716447      10.25078091     -13.50377233
C       13.87817069      12.52737190     -13.86408450
N       14.28677876      11.12300371     -14.02202366
C       14.31141124      14.87304023     -14.27514904
C       14.66316895      13.52622424     -14.43018499
O       14.80086731      17.19265466     -14.60229838
C       15.09477025      15.99012344     -14.85888373
O       15.33128543      10.88509260     -14.65984301
H       15.55277646      13.21249285     -14.97460245
N       16.14292996      15.71005211     -15.67874411
H       16.36100898      14.77084746     -15.98628592
H       16.63737834      16.49176890     -16.09664854
13
Lattice="22.59281808 0.0 0.0 0.0 22.59281808 0.0 0.0 0.0 22.59281808" Properties=species:S:1:pos:R:3 dft_energy_ryd=-195.68699924 molecule_idx=92 crystal_idx=80 pbc="F F F"
H        9.15297790      10.16611787     -10.65630725
N        9.98101022      10.59001032     -13.25190868
C       10.10901701      10.67489249     -10.77255226
H       10.49763118      10.90594373      -8.66949425
C       10.61044398      10.92759550     -12.06208373
N       10.61145684      10.91947961     -14.30775487
C       10.86235184      11.08592335      -9.68052405
C       11.86198863      11.58450693     -12.24679436
C       12.10612630      11.73337370      -9.86181780
S       12.13966579      11.72625456     -13.93435485
C       12.61948776      11.98624879     -11.13101380
H       12.68105982      12.03775843      -8.98661483
H       13.58266317      12.47777511     -11.25465967
26
Lattice="36.5772456 0.0 0.0 0.0 36.5772456 0.0 0.0 0.0 36.5772456" Properties=species:S:1:pos:R:3 dft_energy_ryd=-405.17626114 molecule_idx=109 crystal_idx=92 pbc="F F F"
H       14.83479685      21.46116006     -19.20742121
H       15.11394094      19.72013143     -17.47808069
C       15.73730504      20.85082654     -19.20106238
C       15.89118447      19.87390307     -18.22860656
S       16.34071895      17.49380167     -15.90824120
H       16.60885289      21.84404100     -20.95378662
C       16.72979854      21.07180324     -20.19313933
C       17.05353685      19.05090209     -18.19052201
O       17.43211417      15.45601872     -14.47723061
C       17.32591256      18.02421758     -17.26023620
C       17.57806627      16.20696495     -15.42933063
C       17.86720337      20.28507517     -20.18272258
C       18.04614518      19.27781490     -19.20202439
C       18.52477076      17.29308702     -17.36889662
C       18.70368045      16.28586121     -16.38823910
C       18.99287876      20.36392330     -21.14141580
C       19.24500400      18.54669877     -19.31069550
O       19.13885724      21.11501881     -22.09376845
C       19.51737816      17.52002057     -18.38040577
C       19.84114313      15.49908276     -16.37777463
H       19.96205875      14.72688002     -15.61715334
S       20.23019622      19.07709996     -20.66269241
C       20.67973825      16.69699199     -18.34230779
C       20.83360233      15.72011229     -17.36987578
H       21.45698117      16.85079804     -19.09284963
H       21.73612464      15.10975460     -17.36351070
17
Lattice="27.14356764 0.0 0.0 0.0 27.14356764 0.0 0.0 0.0 27.14356764" Properties=species:S:1:pos:R:3 dft_energy_ryd=-250.07438458 molecule_idx=127 crystal_idx=109 pbc="F F F"
H       10.87291371      12.67844452     -11.40377134
H       11.55870984      11.59185439     -13.56947607
C       11.72889709      13.06175329     -11.95910978
H       12.12052384      14.62074437     -10.52231757
C       12.10354509      12.44570171     -13.16807605
C       12.43656759      14.16191940     -11.45875523
C       13.19714854      12.96801498     -13.84213011
C       13.54563942      14.68672749     -12.14762056
O       13.50097704      11.60967825     -15.89063182
C       13.90806850      14.07167627     -13.33826980
C       13.80559435      12.52841561     -15.14212115
H       14.09929083      15.54556314     -11.76945781
N       14.85663557      13.45298383     -15.32478049
C       15.00307555      14.38793023     -14.29401529
O       15.72548838      13.44397642     -16.39751112
O       15.89808663      15.23926843     -14.29853328
H       16.32922685      14.19573650     -16.16381128
24
Lattice="34.79802228 0.0 0.0 0.0 34.79802228 0.0 0.0 0.0 34.79802228" Properties=species:S:1:pos:R:3 dft_energy_ryd=-473.16511884 molecule_idx=137 crystal_idx=118 pbc="F F F"
N       12.87745392      15.26702448     -16.56981272
N       13.61033870      17.47461419     -17.24678972
O       13.63033898      14.13838440     -16.23436832
C       13.79928310      16.17478840     -16.86856434
S       14.51149480      19.83126900     -17.88497130
C       14.72582856      18.14591961     -17.46446838
N       15.00701431      14.34268322     -16.32853075
C       15.10486315      15.60398253     -16.72539363
N       16.04145790      20.41942634     -18.16642442
C       16.07270654      17.55178362     -17.34414621
N       16.25433346      16.30271149     -16.97519332
C       17.09992549      19.69249423     -18.03395278
N       17.21283064      18.33316871     -17.63757451
H       18.38519598      15.82812120     -16.93635719
C       18.56734416      17.87916209     -17.59332980
S       18.67307420      20.39566356     -18.37543669
C       19.06388855      16.61669534     -17.23550981
C       19.47241807      18.89436055     -17.97541093
C       20.44629209      16.40361491     -17.26991054
H       20.83058390      15.42400783     -16.98862242
C       20.84971965      18.67508136     -18.01044804
C       21.33462955      17.41414456     -17.65288731
H       21.52686204      19.47329382     -18.31301532
H       22.40683476      17.22231701     -17.67359408
15
Lattice="23.67175104 0.0 0.0 0.0 23.67175104 0.0 0.0 0.0 23.67175104" Properties=species:S:1:pos:R:3 dft_energy_ryd=-225.14200071 molecule_idx=164 crystal_idx=143 pbc="F F F"
H        9.25015032      13.11309487     -11.90244819
H        9.92818118      13.88224578     -10.51549433
N       10.08178259      13.39394777     -11.39104286
N       10.23998756      11.37510791     -13.44029639
S       10.79303437      10.19511366     -14.42072980
C       11.17671355      12.55730671     -11.48161160
C       11.23078778      11.59241398     -12.54184138
H       12.28077859      13.32814285      -9.80970178
N       12.26353994       9.90450797     -13.78761364
C       12.28213839      12.61726622     -10.63760336
C       12.39637923      10.75244393     -12.73001359
C       13.42030479      11.78811364     -10.83471445
C       13.51161582      10.86311863     -11.85982193
H       14.25586198      11.89982631     -10.14146336
H       14.38895257      10.23755843     -12.00581190
24
Lattice="39.18980016 0.0 0.0 0.0 39.18980016 0.0 0.0 0.0 39.18980016" Properties=species:S:1:pos:R:3 dft_energy_ryd=-322.40295485 molecule_idx=169 crystal_idx=147 pbc="F F F"
O       16.75776031      18.12973598     -15.71612515
H       17.01158890      17.40805963     -15.11037038
H       17.25770412      23.83217818     -22.41781366
H       16.76672712      19.71320556     -17.49308669
N       17.84149262      18.16459830     -16.61782393
H       17.51487117      20.95856127     -19.39559435
C       17.66716477      19.08358258     -17.50807658
O       18.09602989      23.35079031     -22.54701408
N       18.06088240      22.41020365     -21.49571305
C       18.41472097      20.34816423     -19.47990921
C       18.65488308      19.31801195     -18.56306830
C       19.11566669      21.66626361     -21.51323279
C       19.32878679      20.60919831     -20.52395177
H       19.88603227      21.81013341     -22.28254694
C       19.83267962      18.54666011     -18.67933412
H       20.01957396      17.74989820     -17.95855138
C       20.48930148      19.83366148     -20.62999290
C       20.75362631      18.80381844     -19.70145791
H       21.20288728      20.01972839     -21.43356084
H       22.10229889      17.19080430     -19.02917375
C       21.97540285      17.99926676     -19.76197697
N       22.89030808      18.24213336     -20.64004254
O       23.97382970      17.35147257     -20.49914508
H       24.58207938      17.65616804     -21.19873620
14
Lattice="23.69609424 0.0 0.0 0.0 23.69609424 0.0 0.0 0.0 23.69609424" Properties=species:S:1:pos:R:3 dft_energy_ryd=-178.98907215 molecule_idx=201 crystal_idx=174 pbc="F F F"
O        8.70523971      13.08496478     -11.51443210
O        9.20116699      10.10800950     -13.06959290
C        9.64555915      12.37171837     -11.79331759
C        9.87983559      10.94819050     -12.51928834
C       11.14607743      12.41032674     -11.61017261
C       11.34945592      11.15742393     -12.22801303
H       12.05928934      14.15122228     -10.65328080
C       12.20563479      13.17931176     -11.12343532
C       12.62289385      10.60250752     -12.37691177
H       12.79219938       9.63416480     -12.84536632
C       13.48349540      12.63273793     -11.28404784
C       13.68694884      11.37089301     -11.89273678
H       14.35361531      13.19023780     -10.93670446
H       14.70602942      10.99573218     -11.99014125
